v 0.3 eval {set sim_annotation {2147483648 switch tree type}}
v 1 eval {set sim_annotation {1 0 join-group -2147483648}}
v 1 eval {set sim_annotation {1 1 join-group -2147483648}}
v 1 eval {set sim_annotation {1 2 join-group -2147483648}}
v 1 eval {set sim_annotation {1 3 join-group -2147483648}}
v 1 eval {set sim_annotation {1 4 join-group -2147483648}}
v 1 eval {set sim_annotation {1 5 join-group -2147483648}}
+ 1.900068 0 1 encap 56 ------- 0 0.2 5.0 -1 1
- 1.900068 0 1 encap 56 ------- 0 0.2 5.0 -1 1
+ 1.902841 2 3 encap 56 ------- 0 2.2 5.0 -1 3
- 1.902841 2 3 encap 56 ------- 0 2.2 5.0 -1 3
r 1.910367 0 1 encap 56 ------- 0 0.2 5.0 -1 1
+ 1.910367 1 2 encap 56 ------- 0 0.2 5.0 -1 1
- 1.910367 1 2 encap 56 ------- 0 0.2 5.0 -1 1
r 1.91314 2 3 encap 56 ------- 0 2.2 5.0 -1 3
+ 1.91314 3 5 encap 56 ------- 0 2.2 5.0 -1 3
- 1.91314 3 5 encap 56 ------- 0 2.2 5.0 -1 3
+ 1.917625 3 5 encap 56 ------- 0 3.2 5.0 -1 5
- 1.917625 3 5 encap 56 ------- 0 3.2 5.0 -1 5
r 1.920665 1 2 encap 56 ------- 0 0.2 5.0 -1 1
+ 1.920665 2 3 encap 56 ------- 0 0.2 5.0 -1 1
- 1.920665 2 3 encap 56 ------- 0 0.2 5.0 -1 1
r 1.923438 3 5 encap 56 ------- 0 2.2 5.0 -1 3
+ 1.923438 5 3 SRM 36 ------- 3 2.1 -2147483648.0 -1 2
- 1.923438 5 3 SRM 36 ------- 3 2.1 -2147483648.0 -1 2
r 1.927923 3 5 encap 56 ------- 0 3.2 5.0 -1 5
+ 1.927923 5 3 SRM 36 ------- 4 3.1 -2147483648.0 -1 4
- 1.927923 5 3 SRM 36 ------- 4 3.1 -2147483648.0 -1 4
r 1.930964 2 3 encap 56 ------- 0 0.2 5.0 -1 1
+ 1.930964 3 5 encap 56 ------- 0 0.2 5.0 -1 1
- 1.930964 3 5 encap 56 ------- 0 0.2 5.0 -1 1
r 1.93363 5 3 SRM 36 ------- 3 2.1 -2147483648.0 -1 2
+ 1.93363 3 2 SRM 36 ------- 3 2.1 -2147483648.0 -1 2
- 1.93363 3 2 SRM 36 ------- 3 2.1 -2147483648.0 -1 2
+ 1.93363 3 4 SRM 36 ------- 3 2.1 -2147483648.0 -1 2
- 1.93363 3 4 SRM 36 ------- 3 2.1 -2147483648.0 -1 2
r 1.938115 5 3 SRM 36 ------- 4 3.1 -2147483648.0 -1 4
+ 1.938115 3 2 SRM 36 ------- 4 3.1 -2147483648.0 -1 4
- 1.938115 3 2 SRM 36 ------- 4 3.1 -2147483648.0 -1 4
+ 1.938115 3 4 SRM 36 ------- 4 3.1 -2147483648.0 -1 4
- 1.938115 3 4 SRM 36 ------- 4 3.1 -2147483648.0 -1 4
r 1.941263 3 5 encap 56 ------- 0 0.2 5.0 -1 1
+ 1.941263 5 3 SRM 36 ------- 1 0.1 -2147483648.0 -1 0
- 1.941263 5 3 SRM 36 ------- 1 0.1 -2147483648.0 -1 0
r 1.943822 3 2 SRM 36 ------- 3 2.1 -2147483648.0 -1 2
+ 1.943822 2 1 SRM 36 ------- 3 2.1 -2147483648.0 -1 2
- 1.943822 2 1 SRM 36 ------- 3 2.1 -2147483648.0 -1 2
r 1.943822 3 4 SRM 36 ------- 3 2.1 -2147483648.0 -1 2
r 1.948307 3 2 SRM 36 ------- 4 3.1 -2147483648.0 -1 4
+ 1.948307 2 1 SRM 36 ------- 4 3.1 -2147483648.0 -1 4
- 1.948307 2 1 SRM 36 ------- 4 3.1 -2147483648.0 -1 4
r 1.948307 3 4 SRM 36 ------- 4 3.1 -2147483648.0 -1 4
r 1.951455 5 3 SRM 36 ------- 1 0.1 -2147483648.0 -1 0
+ 1.951455 3 2 SRM 36 ------- 1 0.1 -2147483648.0 -1 0
- 1.951455 3 2 SRM 36 ------- 1 0.1 -2147483648.0 -1 0
+ 1.951455 3 4 SRM 36 ------- 1 0.1 -2147483648.0 -1 0
- 1.951455 3 4 SRM 36 ------- 1 0.1 -2147483648.0 -1 0
r 1.954014 2 1 SRM 36 ------- 3 2.1 -2147483648.0 -1 2
+ 1.954014 1 0 SRM 36 ------- 3 2.1 -2147483648.0 -1 2
- 1.954014 1 0 SRM 36 ------- 3 2.1 -2147483648.0 -1 2
r 1.958499 2 1 SRM 36 ------- 4 3.1 -2147483648.0 -1 4
+ 1.958499 1 0 SRM 36 ------- 4 3.1 -2147483648.0 -1 4
- 1.958499 1 0 SRM 36 ------- 4 3.1 -2147483648.0 -1 4
r 1.961647 3 2 SRM 36 ------- 1 0.1 -2147483648.0 -1 0
+ 1.961647 2 1 SRM 36 ------- 1 0.1 -2147483648.0 -1 0
- 1.961647 2 1 SRM 36 ------- 1 0.1 -2147483648.0 -1 0
r 1.961647 3 4 SRM 36 ------- 1 0.1 -2147483648.0 -1 0
r 1.964206 1 0 SRM 36 ------- 3 2.1 -2147483648.0 -1 2
r 1.968691 1 0 SRM 36 ------- 4 3.1 -2147483648.0 -1 4
r 1.971839 2 1 SRM 36 ------- 1 0.1 -2147483648.0 -1 0
+ 1.971839 1 0 SRM 36 ------- 1 0.1 -2147483648.0 -1 0
- 1.971839 1 0 SRM 36 ------- 1 0.1 -2147483648.0 -1 0
r 1.982031 1 0 SRM 36 ------- 1 0.1 -2147483648.0 -1 0
+ 1.988235 4 3 encap 104 ------- 0 4.2 5.0 -1 7
- 1.988235 4 3 encap 104 ------- 0 4.2 5.0 -1 7
r 1.998789 4 3 encap 104 ------- 0 4.2 5.0 -1 7
+ 1.998789 3 5 encap 104 ------- 0 4.2 5.0 -1 7
- 1.998789 3 5 encap 104 ------- 0 4.2 5.0 -1 7
r 2.009344 3 5 encap 104 ------- 0 4.2 5.0 -1 7
+ 2.009344 5 3 SRM 84 ------- 5 4.1 -2147483648.0 -1 6
- 2.009344 5 3 SRM 84 ------- 5 4.1 -2147483648.0 -1 6
+ 2.011176 1 2 encap 104 ------- 0 1.2 5.0 -1 9
- 2.011176 1 2 encap 104 ------- 0 1.2 5.0 -1 9
r 2.019792 5 3 SRM 84 ------- 5 4.1 -2147483648.0 -1 6
+ 2.019792 3 2 SRM 84 ------- 5 4.1 -2147483648.0 -1 6
- 2.019792 3 2 SRM 84 ------- 5 4.1 -2147483648.0 -1 6
+ 2.019792 3 4 SRM 84 ------- 5 4.1 -2147483648.0 -1 6
- 2.019792 3 4 SRM 84 ------- 5 4.1 -2147483648.0 -1 6
r 2.021731 1 2 encap 104 ------- 0 1.2 5.0 -1 9
+ 2.021731 2 3 encap 104 ------- 0 1.2 5.0 -1 9
- 2.021731 2 3 encap 104 ------- 0 1.2 5.0 -1 9
r 2.03024 3 2 SRM 84 ------- 5 4.1 -2147483648.0 -1 6
+ 2.03024 2 1 SRM 84 ------- 5 4.1 -2147483648.0 -1 6
- 2.03024 2 1 SRM 84 ------- 5 4.1 -2147483648.0 -1 6
r 2.03024 3 4 SRM 84 ------- 5 4.1 -2147483648.0 -1 6
r 2.032285 2 3 encap 104 ------- 0 1.2 5.0 -1 9
+ 2.032285 3 5 encap 104 ------- 0 1.2 5.0 -1 9
- 2.032285 3 5 encap 104 ------- 0 1.2 5.0 -1 9
r 2.040688 2 1 SRM 84 ------- 5 4.1 -2147483648.0 -1 6
+ 2.040688 1 0 SRM 84 ------- 5 4.1 -2147483648.0 -1 6
- 2.040688 1 0 SRM 84 ------- 5 4.1 -2147483648.0 -1 6
r 2.04284 3 5 encap 104 ------- 0 1.2 5.0 -1 9
+ 2.04284 5 3 SRM 84 ------- 2 1.1 -2147483648.0 -1 8
- 2.04284 5 3 SRM 84 ------- 2 1.1 -2147483648.0 -1 8
r 2.051136 1 0 SRM 84 ------- 5 4.1 -2147483648.0 -1 6
r 2.053288 5 3 SRM 84 ------- 2 1.1 -2147483648.0 -1 8
+ 2.053288 3 2 SRM 84 ------- 2 1.1 -2147483648.0 -1 8
- 2.053288 3 2 SRM 84 ------- 2 1.1 -2147483648.0 -1 8
+ 2.053288 3 4 SRM 84 ------- 2 1.1 -2147483648.0 -1 8
- 2.053288 3 4 SRM 84 ------- 2 1.1 -2147483648.0 -1 8
+ 2.059831 5 3 SRM 116 ------- 6 5.1 -2147483648.0 -1 10
- 2.059831 5 3 SRM 116 ------- 6 5.1 -2147483648.0 -1 10
r 2.063736 3 2 SRM 84 ------- 2 1.1 -2147483648.0 -1 8
+ 2.063736 2 1 SRM 84 ------- 2 1.1 -2147483648.0 -1 8
- 2.063736 2 1 SRM 84 ------- 2 1.1 -2147483648.0 -1 8
r 2.063736 3 4 SRM 84 ------- 2 1.1 -2147483648.0 -1 8
r 2.07045 5 3 SRM 116 ------- 6 5.1 -2147483648.0 -1 10
+ 2.07045 3 2 SRM 116 ------- 6 5.1 -2147483648.0 -1 10
- 2.07045 3 2 SRM 116 ------- 6 5.1 -2147483648.0 -1 10
+ 2.07045 3 4 SRM 116 ------- 6 5.1 -2147483648.0 -1 10
- 2.07045 3 4 SRM 116 ------- 6 5.1 -2147483648.0 -1 10
r 2.074184 2 1 SRM 84 ------- 2 1.1 -2147483648.0 -1 8
+ 2.074184 1 0 SRM 84 ------- 2 1.1 -2147483648.0 -1 8
- 2.074184 1 0 SRM 84 ------- 2 1.1 -2147483648.0 -1 8
r 2.081068 3 2 SRM 116 ------- 6 5.1 -2147483648.0 -1 10
+ 2.081068 2 1 SRM 116 ------- 6 5.1 -2147483648.0 -1 10
- 2.081068 2 1 SRM 116 ------- 6 5.1 -2147483648.0 -1 10
r 2.081068 3 4 SRM 116 ------- 6 5.1 -2147483648.0 -1 10
r 2.084632 1 0 SRM 84 ------- 2 1.1 -2147483648.0 -1 8
r 2.091687 2 1 SRM 116 ------- 6 5.1 -2147483648.0 -1 10
+ 2.091687 1 0 SRM 116 ------- 6 5.1 -2147483648.0 -1 10
- 2.091687 1 0 SRM 116 ------- 6 5.1 -2147483648.0 -1 10
r 2.102306 1 0 SRM 116 ------- 6 5.1 -2147483648.0 -1 10
+ 2.86266 0 1 encap 136 ------- 0 0.2 5.0 -1 12
- 2.86266 0 1 encap 136 ------- 0 0.2 5.0 -1 12
+ 2.864545 3 5 encap 136 ------- 0 3.2 5.0 -1 14
- 2.864545 3 5 encap 136 ------- 0 3.2 5.0 -1 14
r 2.873386 0 1 encap 136 ------- 0 0.2 5.0 -1 12
+ 2.873386 1 2 encap 136 ------- 0 0.2 5.0 -1 12
- 2.873386 1 2 encap 136 ------- 0 0.2 5.0 -1 12
r 2.87527 3 5 encap 136 ------- 0 3.2 5.0 -1 14
+ 2.87527 5 3 SRM 116 ------- 4 3.1 -2147483648.0 -1 13
- 2.87527 5 3 SRM 116 ------- 4 3.1 -2147483648.0 -1 13
r 2.884111 1 2 encap 136 ------- 0 0.2 5.0 -1 12
+ 2.884111 2 3 encap 136 ------- 0 0.2 5.0 -1 12
- 2.884111 2 3 encap 136 ------- 0 0.2 5.0 -1 12
r 2.885889 5 3 SRM 116 ------- 4 3.1 -2147483648.0 -1 13
+ 2.885889 3 2 SRM 116 ------- 4 3.1 -2147483648.0 -1 13
- 2.885889 3 2 SRM 116 ------- 4 3.1 -2147483648.0 -1 13
+ 2.885889 3 4 SRM 116 ------- 4 3.1 -2147483648.0 -1 13
- 2.885889 3 4 SRM 116 ------- 4 3.1 -2147483648.0 -1 13
r 2.894836 2 3 encap 136 ------- 0 0.2 5.0 -1 12
+ 2.894836 3 5 encap 136 ------- 0 0.2 5.0 -1 12
- 2.894836 3 5 encap 136 ------- 0 0.2 5.0 -1 12
r 2.896508 3 2 SRM 116 ------- 4 3.1 -2147483648.0 -1 13
+ 2.896508 2 1 SRM 116 ------- 4 3.1 -2147483648.0 -1 13
- 2.896508 2 1 SRM 116 ------- 4 3.1 -2147483648.0 -1 13
r 2.896508 3 4 SRM 116 ------- 4 3.1 -2147483648.0 -1 13
r 2.905562 3 5 encap 136 ------- 0 0.2 5.0 -1 12
+ 2.905562 5 3 SRM 116 ------- 1 0.1 -2147483648.0 -1 11
- 2.905562 5 3 SRM 116 ------- 1 0.1 -2147483648.0 -1 11
r 2.907126 2 1 SRM 116 ------- 4 3.1 -2147483648.0 -1 13
+ 2.907126 1 0 SRM 116 ------- 4 3.1 -2147483648.0 -1 13
- 2.907126 1 0 SRM 116 ------- 4 3.1 -2147483648.0 -1 13
r 2.91618 5 3 SRM 116 ------- 1 0.1 -2147483648.0 -1 11
+ 2.91618 3 2 SRM 116 ------- 1 0.1 -2147483648.0 -1 11
- 2.91618 3 2 SRM 116 ------- 1 0.1 -2147483648.0 -1 11
+ 2.91618 3 4 SRM 116 ------- 1 0.1 -2147483648.0 -1 11
- 2.91618 3 4 SRM 116 ------- 1 0.1 -2147483648.0 -1 11
r 2.917745 1 0 SRM 116 ------- 4 3.1 -2147483648.0 -1 13
r 2.926799 3 2 SRM 116 ------- 1 0.1 -2147483648.0 -1 11
+ 2.926799 2 1 SRM 116 ------- 1 0.1 -2147483648.0 -1 11
- 2.926799 2 1 SRM 116 ------- 1 0.1 -2147483648.0 -1 11
r 2.926799 3 4 SRM 116 ------- 1 0.1 -2147483648.0 -1 11
r 2.937418 2 1 SRM 116 ------- 1 0.1 -2147483648.0 -1 11
+ 2.937418 1 0 SRM 116 ------- 1 0.1 -2147483648.0 -1 11
- 2.937418 1 0 SRM 116 ------- 1 0.1 -2147483648.0 -1 11
r 2.948036 1 0 SRM 116 ------- 1 0.1 -2147483648.0 -1 11
+ 2.966136 2 3 encap 136 ------- 0 2.2 5.0 -1 16
- 2.966136 2 3 encap 136 ------- 0 2.2 5.0 -1 16
+ 2.972992 1 2 encap 136 ------- 0 1.2 5.0 -1 18
- 2.972992 1 2 encap 136 ------- 0 1.2 5.0 -1 18
r 2.976861 2 3 encap 136 ------- 0 2.2 5.0 -1 16
+ 2.976861 3 5 encap 136 ------- 0 2.2 5.0 -1 16
- 2.976861 3 5 encap 136 ------- 0 2.2 5.0 -1 16
r 2.983717 1 2 encap 136 ------- 0 1.2 5.0 -1 18
+ 2.983717 2 3 encap 136 ------- 0 1.2 5.0 -1 18
- 2.983717 2 3 encap 136 ------- 0 1.2 5.0 -1 18
r 2.987587 3 5 encap 136 ------- 0 2.2 5.0 -1 16
+ 2.987587 5 3 SRM 116 ------- 3 2.1 -2147483648.0 -1 15
- 2.987587 5 3 SRM 116 ------- 3 2.1 -2147483648.0 -1 15
r 2.994443 2 3 encap 136 ------- 0 1.2 5.0 -1 18
+ 2.994443 3 5 encap 136 ------- 0 1.2 5.0 -1 18
- 2.994443 3 5 encap 136 ------- 0 1.2 5.0 -1 18
r 2.998205 5 3 SRM 116 ------- 3 2.1 -2147483648.0 -1 15
+ 2.998205 3 2 SRM 116 ------- 3 2.1 -2147483648.0 -1 15
- 2.998205 3 2 SRM 116 ------- 3 2.1 -2147483648.0 -1 15
+ 2.998205 3 4 SRM 116 ------- 3 2.1 -2147483648.0 -1 15
- 2.998205 3 4 SRM 116 ------- 3 2.1 -2147483648.0 -1 15
+ 3 0 1 encap 820 ------- 0 0.2 5.0 -1 20
- 3 0 1 encap 820 ------- 0 0.2 5.0 -1 20
r 3.005168 3 5 encap 136 ------- 0 1.2 5.0 -1 18
+ 3.005168 5 3 SRM 116 ------- 2 1.1 -2147483648.0 -1 17
- 3.005168 5 3 SRM 116 ------- 2 1.1 -2147483648.0 -1 17
r 3.008824 3 2 SRM 116 ------- 3 2.1 -2147483648.0 -1 15
+ 3.008824 2 1 SRM 116 ------- 3 2.1 -2147483648.0 -1 15
- 3.008824 2 1 SRM 116 ------- 3 2.1 -2147483648.0 -1 15
r 3.008824 3 4 SRM 116 ------- 3 2.1 -2147483648.0 -1 15
r 3.014373 0 1 encap 820 ------- 0 0.2 5.0 -1 20
+ 3.014373 1 2 encap 820 ------- 0 0.2 5.0 -1 20
- 3.014373 1 2 encap 820 ------- 0 0.2 5.0 -1 20
r 3.015787 5 3 SRM 116 ------- 2 1.1 -2147483648.0 -1 17
+ 3.015787 3 2 SRM 116 ------- 2 1.1 -2147483648.0 -1 17
- 3.015787 3 2 SRM 116 ------- 2 1.1 -2147483648.0 -1 17
+ 3.015787 3 4 SRM 116 ------- 2 1.1 -2147483648.0 -1 17
- 3.015787 3 4 SRM 116 ------- 2 1.1 -2147483648.0 -1 17
+ 3.016008 4 3 encap 136 ------- 0 4.2 5.0 -1 22
- 3.016008 4 3 encap 136 ------- 0 4.2 5.0 -1 22
r 3.019443 2 1 SRM 116 ------- 3 2.1 -2147483648.0 -1 15
+ 3.019443 1 0 SRM 116 ------- 3 2.1 -2147483648.0 -1 15
- 3.019443 1 0 SRM 116 ------- 3 2.1 -2147483648.0 -1 15
r 3.026405 3 2 SRM 116 ------- 2 1.1 -2147483648.0 -1 17
+ 3.026405 2 1 SRM 116 ------- 2 1.1 -2147483648.0 -1 17
- 3.026405 2 1 SRM 116 ------- 2 1.1 -2147483648.0 -1 17
r 3.026405 3 4 SRM 116 ------- 2 1.1 -2147483648.0 -1 17
r 3.026733 4 3 encap 136 ------- 0 4.2 5.0 -1 22
+ 3.026733 3 5 encap 136 ------- 0 4.2 5.0 -1 22
- 3.026733 3 5 encap 136 ------- 0 4.2 5.0 -1 22
r 3.028747 1 2 encap 820 ------- 0 0.2 5.0 -1 20
+ 3.028747 2 3 encap 820 ------- 0 0.2 5.0 -1 20
- 3.028747 2 3 encap 820 ------- 0 0.2 5.0 -1 20
r 3.030061 1 0 SRM 116 ------- 3 2.1 -2147483648.0 -1 15
r 3.037024 2 1 SRM 116 ------- 2 1.1 -2147483648.0 -1 17
+ 3.037024 1 0 SRM 116 ------- 2 1.1 -2147483648.0 -1 17
- 3.037024 1 0 SRM 116 ------- 2 1.1 -2147483648.0 -1 17
r 3.037458 3 5 encap 136 ------- 0 4.2 5.0 -1 22
+ 3.037458 5 3 SRM 116 ------- 5 4.1 -2147483648.0 -1 21
- 3.037458 5 3 SRM 116 ------- 5 4.1 -2147483648.0 -1 21
+ 3.04 0 1 encap 820 ------- 0 0.2 5.0 -1 24
- 3.04 0 1 encap 820 ------- 0 0.2 5.0 -1 24
r 3.04312 2 3 encap 820 ------- 0 0.2 5.0 -1 20
+ 3.04312 3 5 encap 820 ------- 0 0.2 5.0 -1 20
- 3.04312 3 5 encap 820 ------- 0 0.2 5.0 -1 20
r 3.047643 1 0 SRM 116 ------- 2 1.1 -2147483648.0 -1 17
r 3.048077 5 3 SRM 116 ------- 5 4.1 -2147483648.0 -1 21
+ 3.048077 3 2 SRM 116 ------- 5 4.1 -2147483648.0 -1 21
- 3.048077 3 2 SRM 116 ------- 5 4.1 -2147483648.0 -1 21
+ 3.048077 3 4 SRM 116 ------- 5 4.1 -2147483648.0 -1 21
- 3.048077 3 4 SRM 116 ------- 5 4.1 -2147483648.0 -1 21
r 3.054373 0 1 encap 820 ------- 0 0.2 5.0 -1 24
+ 3.054373 1 2 encap 820 ------- 0 0.2 5.0 -1 24
- 3.054373 1 2 encap 820 ------- 0 0.2 5.0 -1 24
r 3.057493 3 5 encap 820 ------- 0 0.2 5.0 -1 20
+ 3.057493 5 3 cbr 800 ------- 0 0.1 -2147483648.0 0 19
- 3.057493 5 3 cbr 800 ------- 0 0.1 -2147483648.0 0 19
r 3.058696 3 2 SRM 116 ------- 5 4.1 -2147483648.0 -1 21
+ 3.058696 2 1 SRM 116 ------- 5 4.1 -2147483648.0 -1 21
- 3.058696 2 1 SRM 116 ------- 5 4.1 -2147483648.0 -1 21
r 3.058696 3 4 SRM 116 ------- 5 4.1 -2147483648.0 -1 21
r 3.068747 1 2 encap 820 ------- 0 0.2 5.0 -1 24
+ 3.068747 2 3 encap 820 ------- 0 0.2 5.0 -1 24
- 3.068747 2 3 encap 820 ------- 0 0.2 5.0 -1 24
r 3.069314 2 1 SRM 116 ------- 5 4.1 -2147483648.0 -1 21
+ 3.069314 1 0 SRM 116 ------- 5 4.1 -2147483648.0 -1 21
- 3.069314 1 0 SRM 116 ------- 5 4.1 -2147483648.0 -1 21
r 3.07176 5 3 cbr 800 ------- 0 0.1 -2147483648.0 0 19
+ 3.07176 3 2 cbr 800 ------- 0 0.1 -2147483648.0 0 19
- 3.07176 3 2 cbr 800 ------- 0 0.1 -2147483648.0 0 19
+ 3.07176 3 4 cbr 800 ------- 0 0.1 -2147483648.0 0 19
- 3.07176 3 4 cbr 800 ------- 0 0.1 -2147483648.0 0 19
r 3.079933 1 0 SRM 116 ------- 5 4.1 -2147483648.0 -1 21
+ 3.08 0 1 encap 820 ------- 0 0.2 5.0 -1 26
- 3.08 0 1 encap 820 ------- 0 0.2 5.0 -1 26
r 3.08312 2 3 encap 820 ------- 0 0.2 5.0 -1 24
+ 3.08312 3 5 encap 820 ------- 0 0.2 5.0 -1 24
- 3.08312 3 5 encap 820 ------- 0 0.2 5.0 -1 24
r 3.086027 3 2 cbr 800 ------- 0 0.1 -2147483648.0 0 19
+ 3.086027 2 1 cbr 800 ------- 0 0.1 -2147483648.0 0 19
- 3.086027 2 1 cbr 800 ------- 0 0.1 -2147483648.0 0 19
r 3.086027 3 4 cbr 800 ------- 0 0.1 -2147483648.0 0 19
r 3.094373 0 1 encap 820 ------- 0 0.2 5.0 -1 26
+ 3.094373 1 2 encap 820 ------- 0 0.2 5.0 -1 26
- 3.094373 1 2 encap 820 ------- 0 0.2 5.0 -1 26
r 3.097493 3 5 encap 820 ------- 0 0.2 5.0 -1 24
+ 3.097493 5 3 cbr 800 ------- 0 0.1 -2147483648.0 1 23
- 3.097493 5 3 cbr 800 ------- 0 0.1 -2147483648.0 1 23
r 3.100293 2 1 cbr 800 ------- 0 0.1 -2147483648.0 0 19
+ 3.100293 1 0 cbr 800 ------- 0 0.1 -2147483648.0 0 19
- 3.100293 1 0 cbr 800 ------- 0 0.1 -2147483648.0 0 19
r 3.108747 1 2 encap 820 ------- 0 0.2 5.0 -1 26
+ 3.108747 2 3 encap 820 ------- 0 0.2 5.0 -1 26
- 3.108747 2 3 encap 820 ------- 0 0.2 5.0 -1 26
r 3.11176 5 3 cbr 800 ------- 0 0.1 -2147483648.0 1 23
+ 3.11176 3 2 cbr 800 ------- 0 0.1 -2147483648.0 1 23
- 3.11176 3 2 cbr 800 ------- 0 0.1 -2147483648.0 1 23
+ 3.11176 3 4 cbr 800 ------- 0 0.1 -2147483648.0 1 23
- 3.11176 3 4 cbr 800 ------- 0 0.1 -2147483648.0 1 23
r 3.11456 1 0 cbr 800 ------- 0 0.1 -2147483648.0 0 19
+ 3.12 0 1 encap 820 ------- 0 0.2 5.0 -1 28
- 3.12 0 1 encap 820 ------- 0 0.2 5.0 -1 28
r 3.12312 2 3 encap 820 ------- 0 0.2 5.0 -1 26
+ 3.12312 3 5 encap 820 ------- 0 0.2 5.0 -1 26
- 3.12312 3 5 encap 820 ------- 0 0.2 5.0 -1 26
r 3.126027 3 2 cbr 800 ------- 0 0.1 -2147483648.0 1 23
+ 3.126027 2 1 cbr 800 ------- 0 0.1 -2147483648.0 1 23
- 3.126027 2 1 cbr 800 ------- 0 0.1 -2147483648.0 1 23
r 3.126027 3 4 cbr 800 ------- 0 0.1 -2147483648.0 1 23
+ 3.127096 5 3 SRM 116 ------- 6 5.1 -2147483648.0 -1 29
- 3.127096 5 3 SRM 116 ------- 6 5.1 -2147483648.0 -1 29
r 3.134373 0 1 encap 820 ------- 0 0.2 5.0 -1 28
+ 3.134373 1 2 encap 820 ------- 0 0.2 5.0 -1 28
- 3.134373 1 2 encap 820 ------- 0 0.2 5.0 -1 28
r 3.137493 3 5 encap 820 ------- 0 0.2 5.0 -1 26
+ 3.137493 5 3 cbr 800 ------- 0 0.1 -2147483648.0 2 25
- 3.137493 5 3 cbr 800 ------- 0 0.1 -2147483648.0 2 25
r 3.137714 5 3 SRM 116 ------- 6 5.1 -2147483648.0 -1 29
+ 3.137714 3 2 SRM 116 ------- 6 5.1 -2147483648.0 -1 29
- 3.137714 3 2 SRM 116 ------- 6 5.1 -2147483648.0 -1 29
+ 3.137714 3 4 SRM 116 ------- 6 5.1 -2147483648.0 -1 29
- 3.137714 3 4 SRM 116 ------- 6 5.1 -2147483648.0 -1 29
r 3.140293 2 1 cbr 800 ------- 0 0.1 -2147483648.0 1 23
+ 3.140293 1 0 cbr 800 ------- 0 0.1 -2147483648.0 1 23
- 3.140293 1 0 cbr 800 ------- 0 0.1 -2147483648.0 1 23
r 3.148333 3 2 SRM 116 ------- 6 5.1 -2147483648.0 -1 29
+ 3.148333 2 1 SRM 116 ------- 6 5.1 -2147483648.0 -1 29
- 3.148333 2 1 SRM 116 ------- 6 5.1 -2147483648.0 -1 29
r 3.148333 3 4 SRM 116 ------- 6 5.1 -2147483648.0 -1 29
r 3.148747 1 2 encap 820 ------- 0 0.2 5.0 -1 28
+ 3.148747 2 3 encap 820 ------- 0 0.2 5.0 -1 28
- 3.148747 2 3 encap 820 ------- 0 0.2 5.0 -1 28
r 3.15176 5 3 cbr 800 ------- 0 0.1 -2147483648.0 2 25
+ 3.15176 3 2 cbr 800 ------- 0 0.1 -2147483648.0 2 25
- 3.15176 3 2 cbr 800 ------- 0 0.1 -2147483648.0 2 25
+ 3.15176 3 4 cbr 800 ------- 0 0.1 -2147483648.0 2 25
- 3.15176 3 4 cbr 800 ------- 0 0.1 -2147483648.0 2 25
r 3.15456 1 0 cbr 800 ------- 0 0.1 -2147483648.0 1 23
r 3.158952 2 1 SRM 116 ------- 6 5.1 -2147483648.0 -1 29
+ 3.158952 1 0 SRM 116 ------- 6 5.1 -2147483648.0 -1 29
- 3.158952 1 0 SRM 116 ------- 6 5.1 -2147483648.0 -1 29
+ 3.16 0 1 encap 820 ------- 0 0.2 5.0 -1 31
- 3.16 0 1 encap 820 ------- 0 0.2 5.0 -1 31
r 3.16312 2 3 encap 820 ------- 0 0.2 5.0 -1 28
+ 3.16312 3 5 encap 820 ------- 0 0.2 5.0 -1 28
- 3.16312 3 5 encap 820 ------- 0 0.2 5.0 -1 28
r 3.166027 3 2 cbr 800 ------- 0 0.1 -2147483648.0 2 25
+ 3.166027 2 1 cbr 800 ------- 0 0.1 -2147483648.0 2 25
- 3.166027 2 1 cbr 800 ------- 0 0.1 -2147483648.0 2 25
r 3.166027 3 4 cbr 800 ------- 0 0.1 -2147483648.0 2 25
r 3.16957 1 0 SRM 116 ------- 6 5.1 -2147483648.0 -1 29
r 3.174373 0 1 encap 820 ------- 0 0.2 5.0 -1 31
+ 3.174373 1 2 encap 820 ------- 0 0.2 5.0 -1 31
- 3.174373 1 2 encap 820 ------- 0 0.2 5.0 -1 31
r 3.177493 3 5 encap 820 ------- 0 0.2 5.0 -1 28
+ 3.177493 5 3 cbr 800 ------- 0 0.1 -2147483648.0 3 27
- 3.177493 5 3 cbr 800 ------- 0 0.1 -2147483648.0 3 27
r 3.180293 2 1 cbr 800 ------- 0 0.1 -2147483648.0 2 25
+ 3.180293 1 0 cbr 800 ------- 0 0.1 -2147483648.0 2 25
- 3.180293 1 0 cbr 800 ------- 0 0.1 -2147483648.0 2 25
r 3.188747 1 2 encap 820 ------- 0 0.2 5.0 -1 31
+ 3.188747 2 3 encap 820 ------- 0 0.2 5.0 -1 31
- 3.188747 2 3 encap 820 ------- 0 0.2 5.0 -1 31
r 3.19176 5 3 cbr 800 ------- 0 0.1 -2147483648.0 3 27
+ 3.19176 3 2 cbr 800 ------- 0 0.1 -2147483648.0 3 27
- 3.19176 3 2 cbr 800 ------- 0 0.1 -2147483648.0 3 27
+ 3.19176 3 4 cbr 800 ------- 0 0.1 -2147483648.0 3 27
- 3.19176 3 4 cbr 800 ------- 0 0.1 -2147483648.0 3 27
r 3.19456 1 0 cbr 800 ------- 0 0.1 -2147483648.0 2 25
+ 3.2 0 1 encap 820 ------- 0 0.2 5.0 -1 33
- 3.2 0 1 encap 820 ------- 0 0.2 5.0 -1 33
r 3.20312 2 3 encap 820 ------- 0 0.2 5.0 -1 31
+ 3.20312 3 5 encap 820 ------- 0 0.2 5.0 -1 31
- 3.20312 3 5 encap 820 ------- 0 0.2 5.0 -1 31
r 3.206027 3 2 cbr 800 ------- 0 0.1 -2147483648.0 3 27
+ 3.206027 2 1 cbr 800 ------- 0 0.1 -2147483648.0 3 27
- 3.206027 2 1 cbr 800 ------- 0 0.1 -2147483648.0 3 27
r 3.206027 3 4 cbr 800 ------- 0 0.1 -2147483648.0 3 27
r 3.214373 0 1 encap 820 ------- 0 0.2 5.0 -1 33
+ 3.214373 1 2 encap 820 ------- 0 0.2 5.0 -1 33
- 3.214373 1 2 encap 820 ------- 0 0.2 5.0 -1 33
r 3.217493 3 5 encap 820 ------- 0 0.2 5.0 -1 31
+ 3.217493 5 3 cbr 800 ------- 0 0.1 -2147483648.0 4 30
- 3.217493 5 3 cbr 800 ------- 0 0.1 -2147483648.0 4 30
r 3.220293 2 1 cbr 800 ------- 0 0.1 -2147483648.0 3 27
+ 3.220293 1 0 cbr 800 ------- 0 0.1 -2147483648.0 3 27
- 3.220293 1 0 cbr 800 ------- 0 0.1 -2147483648.0 3 27
r 3.228747 1 2 encap 820 ------- 0 0.2 5.0 -1 33
+ 3.228747 2 3 encap 820 ------- 0 0.2 5.0 -1 33
- 3.228747 2 3 encap 820 ------- 0 0.2 5.0 -1 33
r 3.23176 5 3 cbr 800 ------- 0 0.1 -2147483648.0 4 30
+ 3.23176 3 2 cbr 800 ------- 0 0.1 -2147483648.0 4 30
- 3.23176 3 2 cbr 800 ------- 0 0.1 -2147483648.0 4 30
+ 3.23176 3 4 cbr 800 ------- 0 0.1 -2147483648.0 4 30
- 3.23176 3 4 cbr 800 ------- 0 0.1 -2147483648.0 4 30
r 3.23456 1 0 cbr 800 ------- 0 0.1 -2147483648.0 3 27
+ 3.24 0 1 encap 820 ------- 0 0.2 5.0 -1 35
- 3.24 0 1 encap 820 ------- 0 0.2 5.0 -1 35
r 3.24312 2 3 encap 820 ------- 0 0.2 5.0 -1 33
+ 3.24312 3 5 encap 820 ------- 0 0.2 5.0 -1 33
- 3.24312 3 5 encap 820 ------- 0 0.2 5.0 -1 33
r 3.246027 3 2 cbr 800 ------- 0 0.1 -2147483648.0 4 30
+ 3.246027 2 1 cbr 800 ------- 0 0.1 -2147483648.0 4 30
- 3.246027 2 1 cbr 800 ------- 0 0.1 -2147483648.0 4 30
r 3.246027 3 4 cbr 800 ------- 0 0.1 -2147483648.0 4 30
r 3.254373 0 1 encap 820 ------- 0 0.2 5.0 -1 35
+ 3.254373 1 2 encap 820 ------- 0 0.2 5.0 -1 35
- 3.254373 1 2 encap 820 ------- 0 0.2 5.0 -1 35
r 3.257493 3 5 encap 820 ------- 0 0.2 5.0 -1 33
+ 3.257493 5 3 cbr 800 ------- 0 0.1 -2147483648.0 5 32
- 3.257493 5 3 cbr 800 ------- 0 0.1 -2147483648.0 5 32
r 3.260293 2 1 cbr 800 ------- 0 0.1 -2147483648.0 4 30
+ 3.260293 1 0 cbr 800 ------- 0 0.1 -2147483648.0 4 30
- 3.260293 1 0 cbr 800 ------- 0 0.1 -2147483648.0 4 30
r 3.268747 1 2 encap 820 ------- 0 0.2 5.0 -1 35
+ 3.268747 2 3 encap 820 ------- 0 0.2 5.0 -1 35
- 3.268747 2 3 encap 820 ------- 0 0.2 5.0 -1 35
r 3.27176 5 3 cbr 800 ------- 0 0.1 -2147483648.0 5 32
+ 3.27176 3 2 cbr 800 ------- 0 0.1 -2147483648.0 5 32
- 3.27176 3 2 cbr 800 ------- 0 0.1 -2147483648.0 5 32
+ 3.27176 3 4 cbr 800 ------- 0 0.1 -2147483648.0 5 32
- 3.27176 3 4 cbr 800 ------- 0 0.1 -2147483648.0 5 32
r 3.27456 1 0 cbr 800 ------- 0 0.1 -2147483648.0 4 30
+ 3.28 0 1 encap 820 ------- 0 0.2 5.0 -1 37
- 3.28 0 1 encap 820 ------- 0 0.2 5.0 -1 37
r 3.28312 2 3 encap 820 ------- 0 0.2 5.0 -1 35
+ 3.28312 3 5 encap 820 ------- 0 0.2 5.0 -1 35
- 3.28312 3 5 encap 820 ------- 0 0.2 5.0 -1 35
r 3.286027 3 2 cbr 800 ------- 0 0.1 -2147483648.0 5 32
+ 3.286027 2 1 cbr 800 ------- 0 0.1 -2147483648.0 5 32
- 3.286027 2 1 cbr 800 ------- 0 0.1 -2147483648.0 5 32
r 3.286027 3 4 cbr 800 ------- 0 0.1 -2147483648.0 5 32
r 3.294373 0 1 encap 820 ------- 0 0.2 5.0 -1 37
+ 3.294373 1 2 encap 820 ------- 0 0.2 5.0 -1 37
- 3.294373 1 2 encap 820 ------- 0 0.2 5.0 -1 37
r 3.297493 3 5 encap 820 ------- 0 0.2 5.0 -1 35
+ 3.297493 5 3 cbr 800 ------- 0 0.1 -2147483648.0 6 34
- 3.297493 5 3 cbr 800 ------- 0 0.1 -2147483648.0 6 34
r 3.300293 2 1 cbr 800 ------- 0 0.1 -2147483648.0 5 32
+ 3.300293 1 0 cbr 800 ------- 0 0.1 -2147483648.0 5 32
- 3.300293 1 0 cbr 800 ------- 0 0.1 -2147483648.0 5 32
r 3.308747 1 2 encap 820 ------- 0 0.2 5.0 -1 37
+ 3.308747 2 3 encap 820 ------- 0 0.2 5.0 -1 37
- 3.308747 2 3 encap 820 ------- 0 0.2 5.0 -1 37
r 3.31176 5 3 cbr 800 ------- 0 0.1 -2147483648.0 6 34
+ 3.31176 3 2 cbr 800 ------- 0 0.1 -2147483648.0 6 34
- 3.31176 3 2 cbr 800 ------- 0 0.1 -2147483648.0 6 34
+ 3.31176 3 4 cbr 800 ------- 0 0.1 -2147483648.0 6 34
- 3.31176 3 4 cbr 800 ------- 0 0.1 -2147483648.0 6 34
r 3.31456 1 0 cbr 800 ------- 0 0.1 -2147483648.0 5 32
+ 3.32 0 1 encap 820 ------- 0 0.2 5.0 -1 39
- 3.32 0 1 encap 820 ------- 0 0.2 5.0 -1 39
r 3.32312 2 3 encap 820 ------- 0 0.2 5.0 -1 37
+ 3.32312 3 5 encap 820 ------- 0 0.2 5.0 -1 37
- 3.32312 3 5 encap 820 ------- 0 0.2 5.0 -1 37
r 3.326027 3 2 cbr 800 ------- 0 0.1 -2147483648.0 6 34
+ 3.326027 2 1 cbr 800 ------- 0 0.1 -2147483648.0 6 34
- 3.326027 2 1 cbr 800 ------- 0 0.1 -2147483648.0 6 34
r 3.326027 3 4 cbr 800 ------- 0 0.1 -2147483648.0 6 34
r 3.334373 0 1 encap 820 ------- 0 0.2 5.0 -1 39
+ 3.334373 1 2 encap 820 ------- 0 0.2 5.0 -1 39
- 3.334373 1 2 encap 820 ------- 0 0.2 5.0 -1 39
r 3.337493 3 5 encap 820 ------- 0 0.2 5.0 -1 37
+ 3.337493 5 3 cbr 800 ------- 0 0.1 -2147483648.0 7 36
- 3.337493 5 3 cbr 800 ------- 0 0.1 -2147483648.0 7 36
r 3.340293 2 1 cbr 800 ------- 0 0.1 -2147483648.0 6 34
+ 3.340293 1 0 cbr 800 ------- 0 0.1 -2147483648.0 6 34
- 3.340293 1 0 cbr 800 ------- 0 0.1 -2147483648.0 6 34
r 3.348747 1 2 encap 820 ------- 0 0.2 5.0 -1 39
+ 3.348747 2 3 encap 820 ------- 0 0.2 5.0 -1 39
- 3.348747 2 3 encap 820 ------- 0 0.2 5.0 -1 39
r 3.35176 5 3 cbr 800 ------- 0 0.1 -2147483648.0 7 36
+ 3.35176 3 2 cbr 800 ------- 0 0.1 -2147483648.0 7 36
- 3.35176 3 2 cbr 800 ------- 0 0.1 -2147483648.0 7 36
+ 3.35176 3 4 cbr 800 ------- 0 0.1 -2147483648.0 7 36
- 3.35176 3 4 cbr 800 ------- 0 0.1 -2147483648.0 7 36
r 3.35456 1 0 cbr 800 ------- 0 0.1 -2147483648.0 6 34
+ 3.36 0 1 encap 820 ------- 0 0.2 5.0 -1 41
- 3.36 0 1 encap 820 ------- 0 0.2 5.0 -1 41
r 3.36312 2 3 encap 820 ------- 0 0.2 5.0 -1 39
+ 3.36312 3 5 encap 820 ------- 0 0.2 5.0 -1 39
- 3.36312 3 5 encap 820 ------- 0 0.2 5.0 -1 39
r 3.366027 3 2 cbr 800 ------- 0 0.1 -2147483648.0 7 36
+ 3.366027 2 1 cbr 800 ------- 0 0.1 -2147483648.0 7 36
- 3.366027 2 1 cbr 800 ------- 0 0.1 -2147483648.0 7 36
r 3.366027 3 4 cbr 800 ------- 0 0.1 -2147483648.0 7 36
r 3.374373 0 1 encap 820 ------- 0 0.2 5.0 -1 41
+ 3.374373 1 2 encap 820 ------- 0 0.2 5.0 -1 41
- 3.374373 1 2 encap 820 ------- 0 0.2 5.0 -1 41
r 3.377493 3 5 encap 820 ------- 0 0.2 5.0 -1 39
+ 3.377493 5 3 cbr 800 ------- 0 0.1 -2147483648.0 8 38
- 3.377493 5 3 cbr 800 ------- 0 0.1 -2147483648.0 8 38
r 3.380293 2 1 cbr 800 ------- 0 0.1 -2147483648.0 7 36
+ 3.380293 1 0 cbr 800 ------- 0 0.1 -2147483648.0 7 36
- 3.380293 1 0 cbr 800 ------- 0 0.1 -2147483648.0 7 36
r 3.388747 1 2 encap 820 ------- 0 0.2 5.0 -1 41
+ 3.388747 2 3 encap 820 ------- 0 0.2 5.0 -1 41
- 3.388747 2 3 encap 820 ------- 0 0.2 5.0 -1 41
r 3.39176 5 3 cbr 800 ------- 0 0.1 -2147483648.0 8 38
+ 3.39176 3 2 cbr 800 ------- 0 0.1 -2147483648.0 8 38
- 3.39176 3 2 cbr 800 ------- 0 0.1 -2147483648.0 8 38
+ 3.39176 3 4 cbr 800 ------- 0 0.1 -2147483648.0 8 38
- 3.39176 3 4 cbr 800 ------- 0 0.1 -2147483648.0 8 38
r 3.39456 1 0 cbr 800 ------- 0 0.1 -2147483648.0 7 36
+ 3.4 0 1 encap 820 ------- 0 0.2 5.0 -1 43
- 3.4 0 1 encap 820 ------- 0 0.2 5.0 -1 43
r 3.40312 2 3 encap 820 ------- 0 0.2 5.0 -1 41
+ 3.40312 3 5 encap 820 ------- 0 0.2 5.0 -1 41
- 3.40312 3 5 encap 820 ------- 0 0.2 5.0 -1 41
r 3.406027 3 2 cbr 800 ------- 0 0.1 -2147483648.0 8 38
+ 3.406027 2 1 cbr 800 ------- 0 0.1 -2147483648.0 8 38
- 3.406027 2 1 cbr 800 ------- 0 0.1 -2147483648.0 8 38
r 3.406027 3 4 cbr 800 ------- 0 0.1 -2147483648.0 8 38
r 3.414373 0 1 encap 820 ------- 0 0.2 5.0 -1 43
+ 3.414373 1 2 encap 820 ------- 0 0.2 5.0 -1 43
- 3.414373 1 2 encap 820 ------- 0 0.2 5.0 -1 43
r 3.417493 3 5 encap 820 ------- 0 0.2 5.0 -1 41
+ 3.417493 5 3 cbr 800 ------- 0 0.1 -2147483648.0 9 40
- 3.417493 5 3 cbr 800 ------- 0 0.1 -2147483648.0 9 40
r 3.420293 2 1 cbr 800 ------- 0 0.1 -2147483648.0 8 38
+ 3.420293 1 0 cbr 800 ------- 0 0.1 -2147483648.0 8 38
- 3.420293 1 0 cbr 800 ------- 0 0.1 -2147483648.0 8 38
r 3.428747 1 2 encap 820 ------- 0 0.2 5.0 -1 43
+ 3.428747 2 3 encap 820 ------- 0 0.2 5.0 -1 43
- 3.428747 2 3 encap 820 ------- 0 0.2 5.0 -1 43
r 3.43176 5 3 cbr 800 ------- 0 0.1 -2147483648.0 9 40
+ 3.43176 3 2 cbr 800 ------- 0 0.1 -2147483648.0 9 40
- 3.43176 3 2 cbr 800 ------- 0 0.1 -2147483648.0 9 40
+ 3.43176 3 4 cbr 800 ------- 0 0.1 -2147483648.0 9 40
- 3.43176 3 4 cbr 800 ------- 0 0.1 -2147483648.0 9 40
r 3.43456 1 0 cbr 800 ------- 0 0.1 -2147483648.0 8 38
+ 3.44 0 1 encap 820 ------- 0 0.2 5.0 -1 45
- 3.44 0 1 encap 820 ------- 0 0.2 5.0 -1 45
r 3.44312 2 3 encap 820 ------- 0 0.2 5.0 -1 43
+ 3.44312 3 5 encap 820 ------- 0 0.2 5.0 -1 43
- 3.44312 3 5 encap 820 ------- 0 0.2 5.0 -1 43
r 3.446027 3 2 cbr 800 ------- 0 0.1 -2147483648.0 9 40
+ 3.446027 2 1 cbr 800 ------- 0 0.1 -2147483648.0 9 40
- 3.446027 2 1 cbr 800 ------- 0 0.1 -2147483648.0 9 40
r 3.446027 3 4 cbr 800 ------- 0 0.1 -2147483648.0 9 40
r 3.454373 0 1 encap 820 ------- 0 0.2 5.0 -1 45
+ 3.454373 1 2 encap 820 ------- 0 0.2 5.0 -1 45
- 3.454373 1 2 encap 820 ------- 0 0.2 5.0 -1 45
r 3.457493 3 5 encap 820 ------- 0 0.2 5.0 -1 43
+ 3.457493 5 3 cbr 800 ------- 0 0.1 -2147483648.0 10 42
- 3.457493 5 3 cbr 800 ------- 0 0.1 -2147483648.0 10 42
r 3.460293 2 1 cbr 800 ------- 0 0.1 -2147483648.0 9 40
+ 3.460293 1 0 cbr 800 ------- 0 0.1 -2147483648.0 9 40
- 3.460293 1 0 cbr 800 ------- 0 0.1 -2147483648.0 9 40
r 3.468747 1 2 encap 820 ------- 0 0.2 5.0 -1 45
+ 3.468747 2 3 encap 820 ------- 0 0.2 5.0 -1 45
- 3.468747 2 3 encap 820 ------- 0 0.2 5.0 -1 45
r 3.47176 5 3 cbr 800 ------- 0 0.1 -2147483648.0 10 42
+ 3.47176 3 2 cbr 800 ------- 0 0.1 -2147483648.0 10 42
- 3.47176 3 2 cbr 800 ------- 0 0.1 -2147483648.0 10 42
+ 3.47176 3 4 cbr 800 ------- 0 0.1 -2147483648.0 10 42
- 3.47176 3 4 cbr 800 ------- 0 0.1 -2147483648.0 10 42
r 3.47456 1 0 cbr 800 ------- 0 0.1 -2147483648.0 9 40
+ 3.48 0 1 encap 820 ------- 0 0.2 5.0 -1 47
- 3.48 0 1 encap 820 ------- 0 0.2 5.0 -1 47
r 3.48312 2 3 encap 820 ------- 0 0.2 5.0 -1 45
+ 3.48312 3 5 encap 820 ------- 0 0.2 5.0 -1 45
- 3.48312 3 5 encap 820 ------- 0 0.2 5.0 -1 45
r 3.486027 3 2 cbr 800 ------- 0 0.1 -2147483648.0 10 42
+ 3.486027 2 1 cbr 800 ------- 0 0.1 -2147483648.0 10 42
- 3.486027 2 1 cbr 800 ------- 0 0.1 -2147483648.0 10 42
r 3.486027 3 4 cbr 800 ------- 0 0.1 -2147483648.0 10 42
r 3.494373 0 1 encap 820 ------- 0 0.2 5.0 -1 47
+ 3.494373 1 2 encap 820 ------- 0 0.2 5.0 -1 47