v 0.3 eval {set sim_annotation {2147483648 switch tree type}}
v 1 eval {set sim_annotation {1 0 join-group -2147483648}}
v 1 eval {set sim_annotation {1 1 join-group -2147483648}}
v 1 eval {set sim_annotation {1 2 join-group -2147483648}}
v 1 eval {set sim_annotation {1 3 join-group -2147483648}}
v 1 eval {set sim_annotation {1 4 join-group -2147483648}}
v 1 eval {set sim_annotation {1 5 join-group -2147483648}}
v 1 eval {set sim_annotation {1 6 join-group -2147483648}}
v 1 eval {set sim_annotation {1 7 join-group -2147483648}}
v 1 eval {set sim_annotation {1 8 join-group -2147483648}}
+ 1.900068 0 8 encap 56 ------- 0 0.2 8.0 -1 1
- 1.900068 0 8 encap 56 ------- 0 0.2 8.0 -1 1
+ 1.902841 2 0 encap 56 ------- 0 2.2 8.0 -1 3
- 1.902841 2 0 encap 56 ------- 0 2.2 8.0 -1 3
r 1.910367 0 8 encap 56 ------- 0 0.2 8.0 -1 1
+ 1.910367 8 0 SRM 36 ------- 1 0.1 -2147483648.0 -1 0
- 1.910367 8 0 SRM 36 ------- 1 0.1 -2147483648.0 -1 0
r 1.91314 2 0 encap 56 ------- 0 2.2 8.0 -1 3
+ 1.91314 0 8 encap 56 ------- 0 2.2 8.0 -1 3
- 1.91314 0 8 encap 56 ------- 0 2.2 8.0 -1 3
+ 1.917625 3 0 encap 56 ------- 0 3.2 8.0 -1 5
- 1.917625 3 0 encap 56 ------- 0 3.2 8.0 -1 5
r 1.920559 8 0 SRM 36 ------- 1 0.1 -2147483648.0 -1 0
+ 1.920559 0 1 SRM 36 ------- 1 0.1 -2147483648.0 -1 0
- 1.920559 0 1 SRM 36 ------- 1 0.1 -2147483648.0 -1 0
+ 1.920559 0 2 SRM 36 ------- 1 0.1 -2147483648.0 -1 0
- 1.920559 0 2 SRM 36 ------- 1 0.1 -2147483648.0 -1 0
+ 1.920559 0 3 SRM 36 ------- 1 0.1 -2147483648.0 -1 0
- 1.920559 0 3 SRM 36 ------- 1 0.1 -2147483648.0 -1 0
+ 1.920559 0 4 SRM 36 ------- 1 0.1 -2147483648.0 -1 0
- 1.920559 0 4 SRM 36 ------- 1 0.1 -2147483648.0 -1 0
+ 1.920559 0 5 SRM 36 ------- 1 0.1 -2147483648.0 -1 0
- 1.920559 0 5 SRM 36 ------- 1 0.1 -2147483648.0 -1 0
+ 1.920559 0 6 SRM 36 ------- 1 0.1 -2147483648.0 -1 0
- 1.920559 0 6 SRM 36 ------- 1 0.1 -2147483648.0 -1 0
+ 1.920559 0 7 SRM 36 ------- 1 0.1 -2147483648.0 -1 0
- 1.920559 0 7 SRM 36 ------- 1 0.1 -2147483648.0 -1 0
r 1.923438 0 8 encap 56 ------- 0 2.2 8.0 -1 3
+ 1.923438 8 0 SRM 36 ------- 3 2.1 -2147483648.0 -1 2
- 1.923438 8 0 SRM 36 ------- 3 2.1 -2147483648.0 -1 2
r 1.927923 3 0 encap 56 ------- 0 3.2 8.0 -1 5
+ 1.927923 0 8 encap 56 ------- 0 3.2 8.0 -1 5
- 1.927923 0 8 encap 56 ------- 0 3.2 8.0 -1 5
r 1.930751 0 1 SRM 36 ------- 1 0.1 -2147483648.0 -1 0
r 1.930751 0 2 SRM 36 ------- 1 0.1 -2147483648.0 -1 0
r 1.930751 0 3 SRM 36 ------- 1 0.1 -2147483648.0 -1 0
r 1.930751 0 4 SRM 36 ------- 1 0.1 -2147483648.0 -1 0
r 1.930751 0 5 SRM 36 ------- 1 0.1 -2147483648.0 -1 0
r 1.930751 0 6 SRM 36 ------- 1 0.1 -2147483648.0 -1 0
r 1.930751 0 7 SRM 36 ------- 1 0.1 -2147483648.0 -1 0
r 1.93363 8 0 SRM 36 ------- 3 2.1 -2147483648.0 -1 2
+ 1.93363 0 1 SRM 36 ------- 3 2.1 -2147483648.0 -1 2
- 1.93363 0 1 SRM 36 ------- 3 2.1 -2147483648.0 -1 2
+ 1.93363 0 2 SRM 36 ------- 3 2.1 -2147483648.0 -1 2
- 1.93363 0 2 SRM 36 ------- 3 2.1 -2147483648.0 -1 2
+ 1.93363 0 3 SRM 36 ------- 3 2.1 -2147483648.0 -1 2
- 1.93363 0 3 SRM 36 ------- 3 2.1 -2147483648.0 -1 2
+ 1.93363 0 4 SRM 36 ------- 3 2.1 -2147483648.0 -1 2
- 1.93363 0 4 SRM 36 ------- 3 2.1 -2147483648.0 -1 2
+ 1.93363 0 5 SRM 36 ------- 3 2.1 -2147483648.0 -1 2
- 1.93363 0 5 SRM 36 ------- 3 2.1 -2147483648.0 -1 2
+ 1.93363 0 6 SRM 36 ------- 3 2.1 -2147483648.0 -1 2
- 1.93363 0 6 SRM 36 ------- 3 2.1 -2147483648.0 -1 2
+ 1.93363 0 7 SRM 36 ------- 3 2.1 -2147483648.0 -1 2
- 1.93363 0 7 SRM 36 ------- 3 2.1 -2147483648.0 -1 2
r 1.938222 0 8 encap 56 ------- 0 3.2 8.0 -1 5
+ 1.938222 8 0 SRM 36 ------- 4 3.1 -2147483648.0 -1 4
- 1.938222 8 0 SRM 36 ------- 4 3.1 -2147483648.0 -1 4
r 1.943822 0 1 SRM 36 ------- 3 2.1 -2147483648.0 -1 2
r 1.943822 0 2 SRM 36 ------- 3 2.1 -2147483648.0 -1 2
r 1.943822 0 3 SRM 36 ------- 3 2.1 -2147483648.0 -1 2
r 1.943822 0 4 SRM 36 ------- 3 2.1 -2147483648.0 -1 2
r 1.943822 0 5 SRM 36 ------- 3 2.1 -2147483648.0 -1 2
r 1.943822 0 6 SRM 36 ------- 3 2.1 -2147483648.0 -1 2
r 1.943822 0 7 SRM 36 ------- 3 2.1 -2147483648.0 -1 2
+ 1.94692 8 0 SRM 84 ------- 9 8.1 -2147483648.0 -1 6
- 1.94692 8 0 SRM 84 ------- 9 8.1 -2147483648.0 -1 6
r 1.948414 8 0 SRM 36 ------- 4 3.1 -2147483648.0 -1 4
+ 1.948414 0 1 SRM 36 ------- 4 3.1 -2147483648.0 -1 4
- 1.948414 0 1 SRM 36 ------- 4 3.1 -2147483648.0 -1 4
+ 1.948414 0 2 SRM 36 ------- 4 3.1 -2147483648.0 -1 4
- 1.948414 0 2 SRM 36 ------- 4 3.1 -2147483648.0 -1 4
+ 1.948414 0 3 SRM 36 ------- 4 3.1 -2147483648.0 -1 4
- 1.948414 0 3 SRM 36 ------- 4 3.1 -2147483648.0 -1 4
+ 1.948414 0 4 SRM 36 ------- 4 3.1 -2147483648.0 -1 4
- 1.948414 0 4 SRM 36 ------- 4 3.1 -2147483648.0 -1 4
+ 1.948414 0 5 SRM 36 ------- 4 3.1 -2147483648.0 -1 4
- 1.948414 0 5 SRM 36 ------- 4 3.1 -2147483648.0 -1 4
+ 1.948414 0 6 SRM 36 ------- 4 3.1 -2147483648.0 -1 4
- 1.948414 0 6 SRM 36 ------- 4 3.1 -2147483648.0 -1 4
+ 1.948414 0 7 SRM 36 ------- 4 3.1 -2147483648.0 -1 4
- 1.948414 0 7 SRM 36 ------- 4 3.1 -2147483648.0 -1 4
r 1.957368 8 0 SRM 84 ------- 9 8.1 -2147483648.0 -1 6
+ 1.957368 0 1 SRM 84 ------- 9 8.1 -2147483648.0 -1 6
- 1.957368 0 1 SRM 84 ------- 9 8.1 -2147483648.0 -1 6
+ 1.957368 0 2 SRM 84 ------- 9 8.1 -2147483648.0 -1 6
- 1.957368 0 2 SRM 84 ------- 9 8.1 -2147483648.0 -1 6
+ 1.957368 0 3 SRM 84 ------- 9 8.1 -2147483648.0 -1 6
- 1.957368 0 3 SRM 84 ------- 9 8.1 -2147483648.0 -1 6
+ 1.957368 0 4 SRM 84 ------- 9 8.1 -2147483648.0 -1 6
- 1.957368 0 4 SRM 84 ------- 9 8.1 -2147483648.0 -1 6
+ 1.957368 0 5 SRM 84 ------- 9 8.1 -2147483648.0 -1 6
- 1.957368 0 5 SRM 84 ------- 9 8.1 -2147483648.0 -1 6
+ 1.957368 0 6 SRM 84 ------- 9 8.1 -2147483648.0 -1 6
- 1.957368 0 6 SRM 84 ------- 9 8.1 -2147483648.0 -1 6
+ 1.957368 0 7 SRM 84 ------- 9 8.1 -2147483648.0 -1 6
- 1.957368 0 7 SRM 84 ------- 9 8.1 -2147483648.0 -1 6
r 1.958606 0 1 SRM 36 ------- 4 3.1 -2147483648.0 -1 4
r 1.958606 0 2 SRM 36 ------- 4 3.1 -2147483648.0 -1 4
r 1.958606 0 3 SRM 36 ------- 4 3.1 -2147483648.0 -1 4
r 1.958606 0 4 SRM 36 ------- 4 3.1 -2147483648.0 -1 4
r 1.958606 0 5 SRM 36 ------- 4 3.1 -2147483648.0 -1 4
r 1.958606 0 6 SRM 36 ------- 4 3.1 -2147483648.0 -1 4
r 1.958606 0 7 SRM 36 ------- 4 3.1 -2147483648.0 -1 4
+ 1.962592 6 0 encap 104 ------- 0 6.2 8.0 -1 8
- 1.962592 6 0 encap 104 ------- 0 6.2 8.0 -1 8
r 1.967816 0 1 SRM 84 ------- 9 8.1 -2147483648.0 -1 6
r 1.967816 0 2 SRM 84 ------- 9 8.1 -2147483648.0 -1 6
r 1.967816 0 3 SRM 84 ------- 9 8.1 -2147483648.0 -1 6
r 1.967816 0 4 SRM 84 ------- 9 8.1 -2147483648.0 -1 6
r 1.967816 0 5 SRM 84 ------- 9 8.1 -2147483648.0 -1 6
r 1.967816 0 6 SRM 84 ------- 9 8.1 -2147483648.0 -1 6
r 1.967816 0 7 SRM 84 ------- 9 8.1 -2147483648.0 -1 6
r 1.973147 6 0 encap 104 ------- 0 6.2 8.0 -1 8
+ 1.973147 0 8 encap 104 ------- 0 6.2 8.0 -1 8
- 1.973147 0 8 encap 104 ------- 0 6.2 8.0 -1 8
r 1.983702 0 8 encap 104 ------- 0 6.2 8.0 -1 8
+ 1.983702 8 0 SRM 84 ------- 7 6.1 -2147483648.0 -1 7
- 1.983702 8 0 SRM 84 ------- 7 6.1 -2147483648.0 -1 7
+ 1.988235 4 0 encap 120 ------- 0 4.2 8.0 -1 10
- 1.988235 4 0 encap 120 ------- 0 4.2 8.0 -1 10
r 1.99415 8 0 SRM 84 ------- 7 6.1 -2147483648.0 -1 7
+ 1.99415 0 1 SRM 84 ------- 7 6.1 -2147483648.0 -1 7
- 1.99415 0 1 SRM 84 ------- 7 6.1 -2147483648.0 -1 7
+ 1.99415 0 2 SRM 84 ------- 7 6.1 -2147483648.0 -1 7
- 1.99415 0 2 SRM 84 ------- 7 6.1 -2147483648.0 -1 7
+ 1.99415 0 3 SRM 84 ------- 7 6.1 -2147483648.0 -1 7
- 1.99415 0 3 SRM 84 ------- 7 6.1 -2147483648.0 -1 7
+ 1.99415 0 4 SRM 84 ------- 7 6.1 -2147483648.0 -1 7
- 1.99415 0 4 SRM 84 ------- 7 6.1 -2147483648.0 -1 7
+ 1.99415 0 5 SRM 84 ------- 7 6.1 -2147483648.0 -1 7
- 1.99415 0 5 SRM 84 ------- 7 6.1 -2147483648.0 -1 7
+ 1.99415 0 6 SRM 84 ------- 7 6.1 -2147483648.0 -1 7
- 1.99415 0 6 SRM 84 ------- 7 6.1 -2147483648.0 -1 7
+ 1.99415 0 7 SRM 84 ------- 7 6.1 -2147483648.0 -1 7
- 1.99415 0 7 SRM 84 ------- 7 6.1 -2147483648.0 -1 7
r 1.998875 4 0 encap 120 ------- 0 4.2 8.0 -1 10
+ 1.998875 0 8 encap 120 ------- 0 4.2 8.0 -1 10
- 1.998875 0 8 encap 120 ------- 0 4.2 8.0 -1 10
r 2.004598 0 1 SRM 84 ------- 7 6.1 -2147483648.0 -1 7
r 2.004598 0 2 SRM 84 ------- 7 6.1 -2147483648.0 -1 7
r 2.004598 0 3 SRM 84 ------- 7 6.1 -2147483648.0 -1 7
r 2.004598 0 4 SRM 84 ------- 7 6.1 -2147483648.0 -1 7
r 2.004598 0 5 SRM 84 ------- 7 6.1 -2147483648.0 -1 7
r 2.004598 0 6 SRM 84 ------- 7 6.1 -2147483648.0 -1 7
r 2.004598 0 7 SRM 84 ------- 7 6.1 -2147483648.0 -1 7
r 2.009515 0 8 encap 120 ------- 0 4.2 8.0 -1 10
+ 2.009515 8 0 SRM 100 ------- 5 4.1 -2147483648.0 -1 9
- 2.009515 8 0 SRM 100 ------- 5 4.1 -2147483648.0 -1 9
+ 2.011176 1 0 encap 136 ------- 0 1.2 8.0 -1 12
- 2.011176 1 0 encap 136 ------- 0 1.2 8.0 -1 12
r 2.020048 8 0 SRM 100 ------- 5 4.1 -2147483648.0 -1 9
+ 2.020048 0 1 SRM 100 ------- 5 4.1 -2147483648.0 -1 9
- 2.020048 0 1 SRM 100 ------- 5 4.1 -2147483648.0 -1 9
+ 2.020048 0 2 SRM 100 ------- 5 4.1 -2147483648.0 -1 9
- 2.020048 0 2 SRM 100 ------- 5 4.1 -2147483648.0 -1 9
+ 2.020048 0 3 SRM 100 ------- 5 4.1 -2147483648.0 -1 9
- 2.020048 0 3 SRM 100 ------- 5 4.1 -2147483648.0 -1 9
+ 2.020048 0 4 SRM 100 ------- 5 4.1 -2147483648.0 -1 9
- 2.020048 0 4 SRM 100 ------- 5 4.1 -2147483648.0 -1 9
+ 2.020048 0 5 SRM 100 ------- 5 4.1 -2147483648.0 -1 9
- 2.020048 0 5 SRM 100 ------- 5 4.1 -2147483648.0 -1 9
+ 2.020048 0 6 SRM 100 ------- 5 4.1 -2147483648.0 -1 9
- 2.020048 0 6 SRM 100 ------- 5 4.1 -2147483648.0 -1 9
+ 2.020048 0 7 SRM 100 ------- 5 4.1 -2147483648.0 -1 9
- 2.020048 0 7 SRM 100 ------- 5 4.1 -2147483648.0 -1 9
r 2.021901 1 0 encap 136 ------- 0 1.2 8.0 -1 12
+ 2.021901 0 8 encap 136 ------- 0 1.2 8.0 -1 12
- 2.021901 0 8 encap 136 ------- 0 1.2 8.0 -1 12
r 2.030581 0 1 SRM 100 ------- 5 4.1 -2147483648.0 -1 9
r 2.030581 0 2 SRM 100 ------- 5 4.1 -2147483648.0 -1 9
r 2.030581 0 3 SRM 100 ------- 5 4.1 -2147483648.0 -1 9
r 2.030581 0 4 SRM 100 ------- 5 4.1 -2147483648.0 -1 9
r 2.030581 0 5 SRM 100 ------- 5 4.1 -2147483648.0 -1 9
r 2.030581 0 6 SRM 100 ------- 5 4.1 -2147483648.0 -1 9
r 2.030581 0 7 SRM 100 ------- 5 4.1 -2147483648.0 -1 9
r 2.032627 0 8 encap 136 ------- 0 1.2 8.0 -1 12
+ 2.032627 8 0 SRM 116 ------- 2 1.1 -2147483648.0 -1 11
- 2.032627 8 0 SRM 116 ------- 2 1.1 -2147483648.0 -1 11
r 2.043245 8 0 SRM 116 ------- 2 1.1 -2147483648.0 -1 11
+ 2.043245 0 1 SRM 116 ------- 2 1.1 -2147483648.0 -1 11
- 2.043245 0 1 SRM 116 ------- 2 1.1 -2147483648.0 -1 11
+ 2.043245 0 2 SRM 116 ------- 2 1.1 -2147483648.0 -1 11
- 2.043245 0 2 SRM 116 ------- 2 1.1 -2147483648.0 -1 11
+ 2.043245 0 3 SRM 116 ------- 2 1.1 -2147483648.0 -1 11
- 2.043245 0 3 SRM 116 ------- 2 1.1 -2147483648.0 -1 11
+ 2.043245 0 4 SRM 116 ------- 2 1.1 -2147483648.0 -1 11
- 2.043245 0 4 SRM 116 ------- 2 1.1 -2147483648.0 -1 11
+ 2.043245 0 5 SRM 116 ------- 2 1.1 -2147483648.0 -1 11
- 2.043245 0 5 SRM 116 ------- 2 1.1 -2147483648.0 -1 11
+ 2.043245 0 6 SRM 116 ------- 2 1.1 -2147483648.0 -1 11
- 2.043245 0 6 SRM 116 ------- 2 1.1 -2147483648.0 -1 11
+ 2.043245 0 7 SRM 116 ------- 2 1.1 -2147483648.0 -1 11
- 2.043245 0 7 SRM 116 ------- 2 1.1 -2147483648.0 -1 11
r 2.053864 0 1 SRM 116 ------- 2 1.1 -2147483648.0 -1 11
r 2.053864 0 2 SRM 116 ------- 2 1.1 -2147483648.0 -1 11
r 2.053864 0 3 SRM 116 ------- 2 1.1 -2147483648.0 -1 11
r 2.053864 0 4 SRM 116 ------- 2 1.1 -2147483648.0 -1 11
r 2.053864 0 5 SRM 116 ------- 2 1.1 -2147483648.0 -1 11
r 2.053864 0 6 SRM 116 ------- 2 1.1 -2147483648.0 -1 11
r 2.053864 0 7 SRM 116 ------- 2 1.1 -2147483648.0 -1 11
+ 2.059831 5 0 encap 168 ------- 0 5.2 8.0 -1 14
- 2.059831 5 0 encap 168 ------- 0 5.2 8.0 -1 14
+ 2.063295 7 0 encap 168 ------- 0 7.2 8.0 -1 16
- 2.063295 7 0 encap 168 ------- 0 7.2 8.0 -1 16
r 2.070727 5 0 encap 168 ------- 0 5.2 8.0 -1 14
+ 2.070727 0 8 encap 168 ------- 0 5.2 8.0 -1 14
- 2.070727 0 8 encap 168 ------- 0 5.2 8.0 -1 14
r 2.074191 7 0 encap 168 ------- 0 7.2 8.0 -1 16
+ 2.074191 0 8 encap 168 ------- 0 7.2 8.0 -1 16
- 2.074191 0 8 encap 168 ------- 0 7.2 8.0 -1 16
r 2.081623 0 8 encap 168 ------- 0 5.2 8.0 -1 14
+ 2.081623 8 0 SRM 148 ------- 6 5.1 -2147483648.0 -1 13
- 2.081623 8 0 SRM 148 ------- 6 5.1 -2147483648.0 -1 13
r 2.085087 0 8 encap 168 ------- 0 7.2 8.0 -1 16
+ 2.085087 8 0 SRM 148 ------- 8 7.1 -2147483648.0 -1 15
- 2.085087 8 0 SRM 148 ------- 8 7.1 -2147483648.0 -1 15
r 2.092412 8 0 SRM 148 ------- 6 5.1 -2147483648.0 -1 13
+ 2.092412 0 1 SRM 148 ------- 6 5.1 -2147483648.0 -1 13
- 2.092412 0 1 SRM 148 ------- 6 5.1 -2147483648.0 -1 13
+ 2.092412 0 2 SRM 148 ------- 6 5.1 -2147483648.0 -1 13
- 2.092412 0 2 SRM 148 ------- 6 5.1 -2147483648.0 -1 13
+ 2.092412 0 3 SRM 148 ------- 6 5.1 -2147483648.0 -1 13
- 2.092412 0 3 SRM 148 ------- 6 5.1 -2147483648.0 -1 13
+ 2.092412 0 4 SRM 148 ------- 6 5.1 -2147483648.0 -1 13
- 2.092412 0 4 SRM 148 ------- 6 5.1 -2147483648.0 -1 13
+ 2.092412 0 5 SRM 148 ------- 6 5.1 -2147483648.0 -1 13
- 2.092412 0 5 SRM 148 ------- 6 5.1 -2147483648.0 -1 13
+ 2.092412 0 6 SRM 148 ------- 6 5.1 -2147483648.0 -1 13
- 2.092412 0 6 SRM 148 ------- 6 5.1 -2147483648.0 -1 13
+ 2.092412 0 7 SRM 148 ------- 6 5.1 -2147483648.0 -1 13
- 2.092412 0 7 SRM 148 ------- 6 5.1 -2147483648.0 -1 13
r 2.095877 8 0 SRM 148 ------- 8 7.1 -2147483648.0 -1 15
+ 2.095877 0 1 SRM 148 ------- 8 7.1 -2147483648.0 -1 15
- 2.095877 0 1 SRM 148 ------- 8 7.1 -2147483648.0 -1 15
+ 2.095877 0 2 SRM 148 ------- 8 7.1 -2147483648.0 -1 15
- 2.095877 0 2 SRM 148 ------- 8 7.1 -2147483648.0 -1 15
+ 2.095877 0 3 SRM 148 ------- 8 7.1 -2147483648.0 -1 15
- 2.095877 0 3 SRM 148 ------- 8 7.1 -2147483648.0 -1 15
+ 2.095877 0 4 SRM 148 ------- 8 7.1 -2147483648.0 -1 15
- 2.095877 0 4 SRM 148 ------- 8 7.1 -2147483648.0 -1 15
+ 2.095877 0 5 SRM 148 ------- 8 7.1 -2147483648.0 -1 15
- 2.095877 0 5 SRM 148 ------- 8 7.1 -2147483648.0 -1 15
+ 2.095877 0 6 SRM 148 ------- 8 7.1 -2147483648.0 -1 15
- 2.095877 0 6 SRM 148 ------- 8 7.1 -2147483648.0 -1 15
+ 2.095877 0 7 SRM 148 ------- 8 7.1 -2147483648.0 -1 15
- 2.095877 0 7 SRM 148 ------- 8 7.1 -2147483648.0 -1 15
r 2.103202 0 1 SRM 148 ------- 6 5.1 -2147483648.0 -1 13
r 2.103202 0 2 SRM 148 ------- 6 5.1 -2147483648.0 -1 13
r 2.103202 0 3 SRM 148 ------- 6 5.1 -2147483648.0 -1 13
r 2.103202 0 4 SRM 148 ------- 6 5.1 -2147483648.0 -1 13
r 2.103202 0 5 SRM 148 ------- 6 5.1 -2147483648.0 -1 13
r 2.103202 0 6 SRM 148 ------- 6 5.1 -2147483648.0 -1 13
r 2.103202 0 7 SRM 148 ------- 6 5.1 -2147483648.0 -1 13
r 2.106666 0 1 SRM 148 ------- 8 7.1 -2147483648.0 -1 15
r 2.106666 0 2 SRM 148 ------- 8 7.1 -2147483648.0 -1 15
r 2.106666 0 3 SRM 148 ------- 8 7.1 -2147483648.0 -1 15
r 2.106666 0 4 SRM 148 ------- 8 7.1 -2147483648.0 -1 15
r 2.106666 0 5 SRM 148 ------- 8 7.1 -2147483648.0 -1 15
r 2.106666 0 6 SRM 148 ------- 8 7.1 -2147483648.0 -1 15
r 2.106666 0 7 SRM 148 ------- 8 7.1 -2147483648.0 -1 15
+ 2.864657 2 0 encap 184 ------- 0 2.2 8.0 -1 18
- 2.864657 2 0 encap 184 ------- 0 2.2 8.0 -1 18
+ 2.871151 6 0 encap 184 ------- 0 6.2 8.0 -1 20
- 2.871151 6 0 encap 184 ------- 0 6.2 8.0 -1 20
r 2.875638 2 0 encap 184 ------- 0 2.2 8.0 -1 18
+ 2.875638 0 8 encap 184 ------- 0 2.2 8.0 -1 18
- 2.875638 0 8 encap 184 ------- 0 2.2 8.0 -1 18
+ 2.879749 8 0 SRM 164 ------- 9 8.1 -2147483648.0 -1 21
- 2.879749 8 0 SRM 164 ------- 9 8.1 -2147483648.0 -1 21
r 2.882133 6 0 encap 184 ------- 0 6.2 8.0 -1 20
+ 2.882133 0 8 encap 184 ------- 0 6.2 8.0 -1 20
- 2.882133 0 8 encap 184 ------- 0 6.2 8.0 -1 20
r 2.886619 0 8 encap 184 ------- 0 2.2 8.0 -1 18
+ 2.886619 8 0 SRM 164 ------- 3 2.1 -2147483648.0 -1 17
- 2.886619 8 0 SRM 164 ------- 3 2.1 -2147483648.0 -1 17
r 2.890624 8 0 SRM 164 ------- 9 8.1 -2147483648.0 -1 21
+ 2.890624 0 1 SRM 164 ------- 9 8.1 -2147483648.0 -1 21
- 2.890624 0 1 SRM 164 ------- 9 8.1 -2147483648.0 -1 21
+ 2.890624 0 2 SRM 164 ------- 9 8.1 -2147483648.0 -1 21
- 2.890624 0 2 SRM 164 ------- 9 8.1 -2147483648.0 -1 21
+ 2.890624 0 3 SRM 164 ------- 9 8.1 -2147483648.0 -1 21
- 2.890624 0 3 SRM 164 ------- 9 8.1 -2147483648.0 -1 21
+ 2.890624 0 4 SRM 164 ------- 9 8.1 -2147483648.0 -1 21
- 2.890624 0 4 SRM 164 ------- 9 8.1 -2147483648.0 -1 21
+ 2.890624 0 5 SRM 164 ------- 9 8.1 -2147483648.0 -1 21
- 2.890624 0 5 SRM 164 ------- 9 8.1 -2147483648.0 -1 21
+ 2.890624 0 6 SRM 164 ------- 9 8.1 -2147483648.0 -1 21
- 2.890624 0 6 SRM 164 ------- 9 8.1 -2147483648.0 -1 21
+ 2.890624 0 7 SRM 164 ------- 9 8.1 -2147483648.0 -1 21
- 2.890624 0 7 SRM 164 ------- 9 8.1 -2147483648.0 -1 21
r 2.893114 0 8 encap 184 ------- 0 6.2 8.0 -1 20
+ 2.893114 8 0 SRM 164 ------- 7 6.1 -2147483648.0 -1 19
- 2.893114 8 0 SRM 164 ------- 7 6.1 -2147483648.0 -1 19
r 2.897494 8 0 SRM 164 ------- 3 2.1 -2147483648.0 -1 17
+ 2.897494 0 1 SRM 164 ------- 3 2.1 -2147483648.0 -1 17
- 2.897494 0 1 SRM 164 ------- 3 2.1 -2147483648.0 -1 17
+ 2.897494 0 2 SRM 164 ------- 3 2.1 -2147483648.0 -1 17
- 2.897494 0 2 SRM 164 ------- 3 2.1 -2147483648.0 -1 17
+ 2.897494 0 3 SRM 164 ------- 3 2.1 -2147483648.0 -1 17
- 2.897494 0 3 SRM 164 ------- 3 2.1 -2147483648.0 -1 17
+ 2.897494 0 4 SRM 164 ------- 3 2.1 -2147483648.0 -1 17
- 2.897494 0 4 SRM 164 ------- 3 2.1 -2147483648.0 -1 17
+ 2.897494 0 5 SRM 164 ------- 3 2.1 -2147483648.0 -1 17
- 2.897494 0 5 SRM 164 ------- 3 2.1 -2147483648.0 -1 17
+ 2.897494 0 6 SRM 164 ------- 3 2.1 -2147483648.0 -1 17
- 2.897494 0 6 SRM 164 ------- 3 2.1 -2147483648.0 -1 17
+ 2.897494 0 7 SRM 164 ------- 3 2.1 -2147483648.0 -1 17
- 2.897494 0 7 SRM 164 ------- 3 2.1 -2147483648.0 -1 17
r 2.901499 0 1 SRM 164 ------- 9 8.1 -2147483648.0 -1 21
r 2.901499 0 2 SRM 164 ------- 9 8.1 -2147483648.0 -1 21
r 2.901499 0 3 SRM 164 ------- 9 8.1 -2147483648.0 -1 21
r 2.901499 0 4 SRM 164 ------- 9 8.1 -2147483648.0 -1 21
r 2.901499 0 5 SRM 164 ------- 9 8.1 -2147483648.0 -1 21
r 2.901499 0 6 SRM 164 ------- 9 8.1 -2147483648.0 -1 21
r 2.901499 0 7 SRM 164 ------- 9 8.1 -2147483648.0 -1 21
r 2.903989 8 0 SRM 164 ------- 7 6.1 -2147483648.0 -1 19
+ 2.903989 0 1 SRM 164 ------- 7 6.1 -2147483648.0 -1 19
- 2.903989 0 1 SRM 164 ------- 7 6.1 -2147483648.0 -1 19
+ 2.903989 0 2 SRM 164 ------- 7 6.1 -2147483648.0 -1 19
- 2.903989 0 2 SRM 164 ------- 7 6.1 -2147483648.0 -1 19
+ 2.903989 0 3 SRM 164 ------- 7 6.1 -2147483648.0 -1 19
- 2.903989 0 3 SRM 164 ------- 7 6.1 -2147483648.0 -1 19
+ 2.903989 0 4 SRM 164 ------- 7 6.1 -2147483648.0 -1 19
- 2.903989 0 4 SRM 164 ------- 7 6.1 -2147483648.0 -1 19
+ 2.903989 0 5 SRM 164 ------- 7 6.1 -2147483648.0 -1 19
- 2.903989 0 5 SRM 164 ------- 7 6.1 -2147483648.0 -1 19
+ 2.903989 0 6 SRM 164 ------- 7 6.1 -2147483648.0 -1 19
- 2.903989 0 6 SRM 164 ------- 7 6.1 -2147483648.0 -1 19
+ 2.903989 0 7 SRM 164 ------- 7 6.1 -2147483648.0 -1 19
- 2.903989 0 7 SRM 164 ------- 7 6.1 -2147483648.0 -1 19
r 2.908369 0 1 SRM 164 ------- 3 2.1 -2147483648.0 -1 17
r 2.908369 0 2 SRM 164 ------- 3 2.1 -2147483648.0 -1 17
r 2.908369 0 3 SRM 164 ------- 3 2.1 -2147483648.0 -1 17
r 2.908369 0 4 SRM 164 ------- 3 2.1 -2147483648.0 -1 17
r 2.908369 0 5 SRM 164 ------- 3 2.1 -2147483648.0 -1 17
r 2.908369 0 6 SRM 164 ------- 3 2.1 -2147483648.0 -1 17
r 2.908369 0 7 SRM 164 ------- 3 2.1 -2147483648.0 -1 17
r 2.914863 0 1 SRM 164 ------- 7 6.1 -2147483648.0 -1 19
r 2.914863 0 2 SRM 164 ------- 7 6.1 -2147483648.0 -1 19
r 2.914863 0 3 SRM 164 ------- 7 6.1 -2147483648.0 -1 19
r 2.914863 0 4 SRM 164 ------- 7 6.1 -2147483648.0 -1 19
r 2.914863 0 5 SRM 164 ------- 7 6.1 -2147483648.0 -1 19
r 2.914863 0 6 SRM 164 ------- 7 6.1 -2147483648.0 -1 19
r 2.914863 0 7 SRM 164 ------- 7 6.1 -2147483648.0 -1 19
+ 2.927841 0 8 encap 184 ------- 0 0.2 8.0 -1 23
- 2.927841 0 8 encap 184 ------- 0 0.2 8.0 -1 23
+ 2.933938 1 0 encap 184 ------- 0 1.2 8.0 -1 25
- 2.933938 1 0 encap 184 ------- 0 1.2 8.0 -1 25
r 2.938822 0 8 encap 184 ------- 0 0.2 8.0 -1 23
+ 2.938822 8 0 SRM 164 ------- 1 0.1 -2147483648.0 -1 22
- 2.938822 8 0 SRM 164 ------- 1 0.1 -2147483648.0 -1 22
r 2.944919 1 0 encap 184 ------- 0 1.2 8.0 -1 25
+ 2.944919 0 8 encap 184 ------- 0 1.2 8.0 -1 25
- 2.944919 0 8 encap 184 ------- 0 1.2 8.0 -1 25
r 2.949697 8 0 SRM 164 ------- 1 0.1 -2147483648.0 -1 22
+ 2.949697 0 1 SRM 164 ------- 1 0.1 -2147483648.0 -1 22
- 2.949697 0 1 SRM 164 ------- 1 0.1 -2147483648.0 -1 22
+ 2.949697 0 2 SRM 164 ------- 1 0.1 -2147483648.0 -1 22
- 2.949697 0 2 SRM 164 ------- 1 0.1 -2147483648.0 -1 22
+ 2.949697 0 3 SRM 164 ------- 1 0.1 -2147483648.0 -1 22
- 2.949697 0 3 SRM 164 ------- 1 0.1 -2147483648.0 -1 22
+ 2.949697 0 4 SRM 164 ------- 1 0.1 -2147483648.0 -1 22
- 2.949697 0 4 SRM 164 ------- 1 0.1 -2147483648.0 -1 22
+ 2.949697 0 5 SRM 164 ------- 1 0.1 -2147483648.0 -1 22
- 2.949697 0 5 SRM 164 ------- 1 0.1 -2147483648.0 -1 22
+ 2.949697 0 6 SRM 164 ------- 1 0.1 -2147483648.0 -1 22
- 2.949697 0 6 SRM 164 ------- 1 0.1 -2147483648.0 -1 22
+ 2.949697 0 7 SRM 164 ------- 1 0.1 -2147483648.0 -1 22
- 2.949697 0 7 SRM 164 ------- 1 0.1 -2147483648.0 -1 22
r 2.9559 0 8 encap 184 ------- 0 1.2 8.0 -1 25
+ 2.9559 8 0 SRM 164 ------- 2 1.1 -2147483648.0 -1 24
- 2.9559 8 0 SRM 164 ------- 2 1.1 -2147483648.0 -1 24
r 2.960572 0 1 SRM 164 ------- 1 0.1 -2147483648.0 -1 22
r 2.960572 0 2 SRM 164 ------- 1 0.1 -2147483648.0 -1 22
r 2.960572 0 3 SRM 164 ------- 1 0.1 -2147483648.0 -1 22
r 2.960572 0 4 SRM 164 ------- 1 0.1 -2147483648.0 -1 22
r 2.960572 0 5 SRM 164 ------- 1 0.1 -2147483648.0 -1 22
r 2.960572 0 6 SRM 164 ------- 1 0.1 -2147483648.0 -1 22
r 2.960572 0 7 SRM 164 ------- 1 0.1 -2147483648.0 -1 22
r 2.966775 8 0 SRM 164 ------- 2 1.1 -2147483648.0 -1 24
+ 2.966775 0 1 SRM 164 ------- 2 1.1 -2147483648.0 -1 24
- 2.966775 0 1 SRM 164 ------- 2 1.1 -2147483648.0 -1 24
+ 2.966775 0 2 SRM 164 ------- 2 1.1 -2147483648.0 -1 24
- 2.966775 0 2 SRM 164 ------- 2 1.1 -2147483648.0 -1 24
+ 2.966775 0 3 SRM 164 ------- 2 1.1 -2147483648.0 -1 24
- 2.966775 0 3 SRM 164 ------- 2 1.1 -2147483648.0 -1 24
+ 2.966775 0 4 SRM 164 ------- 2 1.1 -2147483648.0 -1 24
- 2.966775 0 4 SRM 164 ------- 2 1.1 -2147483648.0 -1 24
+ 2.966775 0 5 SRM 164 ------- 2 1.1 -2147483648.0 -1 24
- 2.966775 0 5 SRM 164 ------- 2 1.1 -2147483648.0 -1 24
+ 2.966775 0 6 SRM 164 ------- 2 1.1 -2147483648.0 -1 24
- 2.966775 0 6 SRM 164 ------- 2 1.1 -2147483648.0 -1 24
+ 2.966775 0 7 SRM 164 ------- 2 1.1 -2147483648.0 -1 24
- 2.966775 0 7 SRM 164 ------- 2 1.1 -2147483648.0 -1 24
r 2.97765 0 1 SRM 164 ------- 2 1.1 -2147483648.0 -1 24
r 2.97765 0 2 SRM 164 ------- 2 1.1 -2147483648.0 -1 24
r 2.97765 0 3 SRM 164 ------- 2 1.1 -2147483648.0 -1 24
r 2.97765 0 4 SRM 164 ------- 2 1.1 -2147483648.0 -1 24
r 2.97765 0 5 SRM 164 ------- 2 1.1 -2147483648.0 -1 24
r 2.97765 0 6 SRM 164 ------- 2 1.1 -2147483648.0 -1 24
r 2.97765 0 7 SRM 164 ------- 2 1.1 -2147483648.0 -1 24
+ 2.984889 3 0 encap 184 ------- 0 3.2 8.0 -1 27
- 2.984889 3 0 encap 184 ------- 0 3.2 8.0 -1 27
r 2.995871 3 0 encap 184 ------- 0 3.2 8.0 -1 27
+ 2.995871 0 8 encap 184 ------- 0 3.2 8.0 -1 27
- 2.995871 0 8 encap 184 ------- 0 3.2 8.0 -1 27
+ 3 1 0 encap 820 ------- 0 1.2 8.0 -1 29
- 3 1 0 encap 820 ------- 0 1.2 8.0 -1 29
r 3.006852 0 8 encap 184 ------- 0 3.2 8.0 -1 27
+ 3.006852 8 0 SRM 164 ------- 4 3.1 -2147483648.0 -1 26
- 3.006852 8 0 SRM 164 ------- 4 3.1 -2147483648.0 -1 26
r 3.014373 1 0 encap 820 ------- 0 1.2 8.0 -1 29
+ 3.014373 0 8 encap 820 ------- 0 1.2 8.0 -1 29
- 3.014373 0 8 encap 820 ------- 0 1.2 8.0 -1 29
+ 3.016248 4 0 encap 184 ------- 0 4.2 8.0 -1 31
- 3.016248 4 0 encap 184 ------- 0 4.2 8.0 -1 31
r 3.017727 8 0 SRM 164 ------- 4 3.1 -2147483648.0 -1 26
+ 3.017727 0 1 SRM 164 ------- 4 3.1 -2147483648.0 -1 26
- 3.017727 0 1 SRM 164 ------- 4 3.1 -2147483648.0 -1 26
+ 3.017727 0 2 SRM 164 ------- 4 3.1 -2147483648.0 -1 26
- 3.017727 0 2 SRM 164 ------- 4 3.1 -2147483648.0 -1 26
+ 3.017727 0 3 SRM 164 ------- 4 3.1 -2147483648.0 -1 26
- 3.017727 0 3 SRM 164 ------- 4 3.1 -2147483648.0 -1 26
+ 3.017727 0 4 SRM 164 ------- 4 3.1 -2147483648.0 -1 26
- 3.017727 0 4 SRM 164 ------- 4 3.1 -2147483648.0 -1 26
+ 3.017727 0 5 SRM 164 ------- 4 3.1 -2147483648.0 -1 26
- 3.017727 0 5 SRM 164 ------- 4 3.1 -2147483648.0 -1 26
+ 3.017727 0 6 SRM 164 ------- 4 3.1 -2147483648.0 -1 26
- 3.017727 0 6 SRM 164 ------- 4 3.1 -2147483648.0 -1 26
+ 3.017727 0 7 SRM 164 ------- 4 3.1 -2147483648.0 -1 26
- 3.017727 0 7 SRM 164 ------- 4 3.1 -2147483648.0 -1 26
r 3.02723 4 0 encap 184 ------- 0 4.2 8.0 -1 31
+ 3.02723 0 8 encap 184 ------- 0 4.2 8.0 -1 31
- 3.02723 0 8 encap 184 ------- 0 4.2 8.0 -1 31
r 3.028601 0 1 SRM 164 ------- 4 3.1 -2147483648.0 -1 26
r 3.028601 0 2 SRM 164 ------- 4 3.1 -2147483648.0 -1 26
r 3.028601 0 3 SRM 164 ------- 4 3.1 -2147483648.0 -1 26
r 3.028601 0 4 SRM 164 ------- 4 3.1 -2147483648.0 -1 26
r 3.028601 0 5 SRM 164 ------- 4 3.1 -2147483648.0 -1 26
r 3.028601 0 6 SRM 164 ------- 4 3.1 -2147483648.0 -1 26
r 3.028601 0 7 SRM 164 ------- 4 3.1 -2147483648.0 -1 26
r 3.028747 0 8 encap 820 ------- 0 1.2 8.0 -1 29
+ 3.028747 8 0 cbr 800 ------- 0 1.1 -2147483648.0 0 28
- 3.028747 8 0 cbr 800 ------- 0 1.1 -2147483648.0 0 28
r 3.038211 0 8 encap 184 ------- 0 4.2 8.0 -1 31
+ 3.038211 8 0 SRM 164 ------- 5 4.1 -2147483648.0 -1 30
- 3.038211 8 0 SRM 164 ------- 5 4.1 -2147483648.0 -1 30
+ 3.04 1 0 encap 820 ------- 0 1.2 8.0 -1 33
- 3.04 1 0 encap 820 ------- 0 1.2 8.0 -1 33
r 3.043013 8 0 cbr 800 ------- 0 1.1 -2147483648.0 0 28
+ 3.043013 0 1 cbr 800 ------- 0 1.1 -2147483648.0 0 28
- 3.043013 0 1 cbr 800 ------- 0 1.1 -2147483648.0 0 28
+ 3.043013 0 2 cbr 800 ------- 0 1.1 -2147483648.0 0 28
- 3.043013 0 2 cbr 800 ------- 0 1.1 -2147483648.0 0 28
+ 3.043013 0 3 cbr 800 ------- 0 1.1 -2147483648.0 0 28
- 3.043013 0 3 cbr 800 ------- 0 1.1 -2147483648.0 0 28
+ 3.043013 0 4 cbr 800 ------- 0 1.1 -2147483648.0 0 28
- 3.043013 0 4 cbr 800 ------- 0 1.1 -2147483648.0 0 28
+ 3.043013 0 5 cbr 800 ------- 0 1.1 -2147483648.0 0 28
- 3.043013 0 5 cbr 800 ------- 0 1.1 -2147483648.0 0 28
+ 3.043013 0 6 cbr 800 ------- 0 1.1 -2147483648.0 0 28
- 3.043013 0 6 cbr 800 ------- 0 1.1 -2147483648.0 0 28
+ 3.043013 0 7 cbr 800 ------- 0 1.1 -2147483648.0 0 28
- 3.043013 0 7 cbr 800 ------- 0 1.1 -2147483648.0 0 28
+ 3.048027 7 0 encap 184 ------- 0 7.2 8.0 -1 35
- 3.048027 7 0 encap 184 ------- 0 7.2 8.0 -1 35
r 3.049086 8 0 SRM 164 ------- 5 4.1 -2147483648.0 -1 30
+ 3.049086 0 1 SRM 164 ------- 5 4.1 -2147483648.0 -1 30
- 3.049086 0 1 SRM 164 ------- 5 4.1 -2147483648.0 -1 30
+ 3.049086 0 2 SRM 164 ------- 5 4.1 -2147483648.0 -1 30
- 3.049086 0 2 SRM 164 ------- 5 4.1 -2147483648.0 -1 30
+ 3.049086 0 3 SRM 164 ------- 5 4.1 -2147483648.0 -1 30
- 3.049086 0 3 SRM 164 ------- 5 4.1 -2147483648.0 -1 30
+ 3.049086 0 4 SRM 164 ------- 5 4.1 -2147483648.0 -1 30
- 3.049086 0 4 SRM 164 ------- 5 4.1 -2147483648.0 -1 30
+ 3.049086 0 5 SRM 164 ------- 5 4.1 -2147483648.0 -1 30
- 3.049086 0 5 SRM 164 ------- 5 4.1 -2147483648.0 -1 30
+ 3.049086 0 6 SRM 164 ------- 5 4.1 -2147483648.0 -1 30
- 3.049086 0 6 SRM 164 ------- 5 4.1 -2147483648.0 -1 30
+ 3.049086 0 7 SRM 164 ------- 5 4.1 -2147483648.0 -1 30
- 3.049086 0 7 SRM 164 ------- 5 4.1 -2147483648.0 -1 30
r 3.054373 1 0 encap 820 ------- 0 1.2 8.0 -1 33
+ 3.054373 0 8 encap 820 ------- 0 1.2 8.0 -1 33
- 3.054373 0 8 encap 820 ------- 0 1.2 8.0 -1 33
r 3.05728 0 1 cbr 800 ------- 0 1.1 -2147483648.0 0 28
r 3.05728 0 2 cbr 800 ------- 0 1.1 -2147483648.0 0 28
r 3.05728 0 3 cbr 800 ------- 0 1.1 -2147483648.0 0 28
r 3.05728 0 4 cbr 800 ------- 0 1.1 -2147483648.0 0 28
r 3.05728 0 5 cbr 800 ------- 0 1.1 -2147483648.0 0 28
r 3.05728 0 6 cbr 800 ------- 0 1.1 -2147483648.0 0 28
r 3.05728 0 7 cbr 800 ------- 0 1.1 -2147483648.0 0 28
r 3.059008 7 0 encap 184 ------- 0 7.2 8.0 -1 35
+ 3.059008 0 8 encap 184 ------- 0 7.2 8.0 -1 35
- 3.059008 0 8 encap 184 ------- 0 7.2 8.0 -1 35
r 3.05996 0 1 SRM 164 ------- 5 4.1 -2147483648.0 -1 30
r 3.05996 0 2 SRM 164 ------- 5 4.1 -2147483648.0 -1 30
r 3.05996 0 3 SRM 164 ------- 5 4.1 -2147483648.0 -1 30
r 3.05996 0 4 SRM 164 ------- 5 4.1 -2147483648.0 -1 30
r 3.05996 0 5 SRM 164 ------- 5 4.1 -2147483648.0 -1 30
r 3.05996 0 6 SRM 164 ------- 5 4.1 -2147483648.0 -1 30
r 3.05996 0 7 SRM 164 ------- 5 4.1 -2147483648.0 -1 30
r 3.068747 0 8 encap 820 ------- 0 1.2 8.0 -1 33
+ 3.068747 8 0 cbr 800 ------- 0 1.1 -2147483648.0 1 32
- 3.068747 8 0 cbr 800 ------- 0 1.1 -2147483648.0 1 32
r 3.069989 0 8 encap 184 ------- 0 7.2 8.0 -1 35
+ 3.069989 8 0 SRM 164 ------- 8 7.1 -2147483648.0 -1 34
- 3.073013 8 0 SRM 164 ------- 8 7.1 -2147483648.0 -1 34
+ 3.08 1 0 encap 820 ------- 0 1.2 8.0 -1 37
- 3.08 1 0 encap 820 ------- 0 1.2 8.0 -1 37
r 3.083013 8 0 cbr 800 ------- 0 1.1 -2147483648.0 1 32
+ 3.083013 0 1 cbr 800 ------- 0 1.1 -2147483648.0 1 32
- 3.083013 0 1 cbr 800 ------- 0 1.1 -2147483648.0 1 32
d 3.083013 0 2 cbr 800 ------- 0 1.1 -2147483648.0 1 32
+ 3.083013 0 3 cbr 800 ------- 0 1.1 -2147483648.0 1 32
- 3.083013 0 3 cbr 800 ------- 0 1.1 -2147483648.0 1 32
+ 3.083013 0 4 cbr 800 ------- 0 1.1 -2147483648.0 1 32
- 3.083013 0 4 cbr 800 ------- 0 1.1 -2147483648.0 1 32
+ 3.083013 0 5 cbr 800 ------- 0 1.1 -2147483648.0 1 32
- 3.083013 0 5 cbr 800 ------- 0 1.1 -2147483648.0 1 32
+ 3.083013 0 6 cbr 800 ------- 0 1.1 -2147483648.0 1 32
- 3.083013 0 6 cbr 800 ------- 0 1.1 -2147483648.0 1 32
+ 3.083013 0 7 cbr 800 ------- 0 1.1 -2147483648.0 1 32
- 3.083013 0 7 cbr 800 ------- 0 1.1 -2147483648.0 1 32
r 3.083888 8 0 SRM 164 ------- 8 7.1 -2147483648.0 -1 34
+ 3.083888 0 1 SRM 164 ------- 8 7.1 -2147483648.0 -1 34
+ 3.083888 0 2 SRM 164 ------- 8 7.1 -2147483648.0 -1 34
- 3.083888 0 2 SRM 164 ------- 8 7.1 -2147483648.0 -1 34
+ 3.083888 0 3 SRM 164 ------- 8 7.1 -2147483648.0 -1 34
+ 3.083888 0 4 SRM 164 ------- 8 7.1 -2147483648.0 -1 34
+ 3.083888 0 5 SRM 164 ------- 8 7.1 -2147483648.0 -1 34
+ 3.083888 0 6 SRM 164 ------- 8 7.1 -2147483648.0 -1 34
+ 3.083888 0 7 SRM 164 ------- 8 7.1 -2147483648.0 -1 34
- 3.08728 0 1 SRM 164 ------- 8 7.1 -2147483648.0 -1 34
- 3.08728 0 3 SRM 164 ------- 8 7.1 -2147483648.0 -1 34
- 3.08728 0 4 SRM 164 ------- 8 7.1 -2147483648.0 -1 34
- 3.08728 0 5 SRM 164 ------- 8 7.1 -2147483648.0 -1 34