v 0 eval {set sim_annotation {2147483648 switch tree type}}
+ 0 0 1 encap 230 ------- 0 0.0.0.2 1.1.2.0 -1 1
- 0 0 1 encap 230 ------- 0 0.0.0.2 1.1.2.0 -1 1
r 0.002368 0 1 encap 230 ------- 0 0.0.0.2 1.1.2.0 -1 1
+ 0.002368 1 5 encap 230 ------- 0 0.0.0.2 1.1.2.0 -1 1
- 0.002368 1 5 encap 230 ------- 0 0.0.0.2 1.1.2.0 -1 1
+ 0.00375 0 1 encap 230 ------- 0 0.0.0.2 1.1.2.0 -1 3
- 0.00375 0 1 encap 230 ------- 0 0.0.0.2 1.1.2.0 -1 3
r 0.004736 1 5 encap 230 ------- 0 0.0.0.2 1.1.2.0 -1 1
+ 0.004736 5 6 encap 230 ------- 0 0.0.0.2 1.1.2.0 -1 1
- 0.004736 5 6 encap 230 ------- 0 0.0.0.2 1.1.2.0 -1 1
r 0.006118 0 1 encap 230 ------- 0 0.0.0.2 1.1.2.0 -1 3
+ 0.006118 1 5 encap 230 ------- 0 0.0.0.2 1.1.2.0 -1 3
- 0.006118 1 5 encap 230 ------- 0 0.0.0.2 1.1.2.0 -1 3
r 0.007104 5 6 encap 230 ------- 0 0.0.0.2 1.1.2.0 -1 1
+ 0.007104 6 7 encap 230 ------- 0 0.0.0.2 1.1.2.0 -1 1
- 0.007104 6 7 encap 230 ------- 0 0.0.0.2 1.1.2.0 -1 1
+ 0.0075 0 1 encap 230 ------- 0 0.0.0.2 1.1.2.0 -1 5
- 0.0075 0 1 encap 230 ------- 0 0.0.0.2 1.1.2.0 -1 5
r 0.008486 1 5 encap 230 ------- 0 0.0.0.2 1.1.2.0 -1 3
+ 0.008486 5 6 encap 230 ------- 0 0.0.0.2 1.1.2.0 -1 3
- 0.008486 5 6 encap 230 ------- 0 0.0.0.2 1.1.2.0 -1 3
r 0.009472 6 7 encap 230 ------- 0 0.0.0.2 1.1.2.0 -1 1
+ 0.009472 7 8 encap 230 ------- 0 0.0.0.2 1.1.2.0 -1 1
- 0.009472 7 8 encap 230 ------- 0 0.0.0.2 1.1.2.0 -1 1
r 0.009868 0 1 encap 230 ------- 0 0.0.0.2 1.1.2.0 -1 5
+ 0.009868 1 5 encap 230 ------- 0 0.0.0.2 1.1.2.0 -1 5
- 0.009868 1 5 encap 230 ------- 0 0.0.0.2 1.1.2.0 -1 5
r 0.010854 5 6 encap 230 ------- 0 0.0.0.2 1.1.2.0 -1 3
+ 0.010854 6 7 encap 230 ------- 0 0.0.0.2 1.1.2.0 -1 3
- 0.010854 6 7 encap 230 ------- 0 0.0.0.2 1.1.2.0 -1 3
+ 0.01125 0 1 encap 230 ------- 0 0.0.0.2 1.1.2.0 -1 7
- 0.01125 0 1 encap 230 ------- 0 0.0.0.2 1.1.2.0 -1 7
r 0.01184 7 8 encap 230 ------- 0 0.0.0.2 1.1.2.0 -1 1
+ 0.01184 8 9 encap 230 ------- 0 0.0.0.2 1.1.2.0 -1 1
- 0.01184 8 9 encap 230 ------- 0 0.0.0.2 1.1.2.0 -1 1
r 0.012236 1 5 encap 230 ------- 0 0.0.0.2 1.1.2.0 -1 5
+ 0.012236 5 6 encap 230 ------- 0 0.0.0.2 1.1.2.0 -1 5
- 0.012236 5 6 encap 230 ------- 0 0.0.0.2 1.1.2.0 -1 5
r 0.013222 6 7 encap 230 ------- 0 0.0.0.2 1.1.2.0 -1 3
+ 0.013222 7 8 encap 230 ------- 0 0.0.0.2 1.1.2.0 -1 3
- 0.013222 7 8 encap 230 ------- 0 0.0.0.2 1.1.2.0 -1 3
r 0.013618 0 1 encap 230 ------- 0 0.0.0.2 1.1.2.0 -1 7
+ 0.013618 1 5 encap 230 ------- 0 0.0.0.2 1.1.2.0 -1 7
- 0.013618 1 5 encap 230 ------- 0 0.0.0.2 1.1.2.0 -1 7
r 0.014208 8 9 encap 230 ------- 0 0.0.0.2 1.1.2.0 -1 1
r 0.014604 5 6 encap 230 ------- 0 0.0.0.2 1.1.2.0 -1 5
+ 0.014604 6 7 encap 230 ------- 0 0.0.0.2 1.1.2.0 -1 5
- 0.014604 6 7 encap 230 ------- 0 0.0.0.2 1.1.2.0 -1 5
+ 0.015 0 1 encap 230 ------- 0 0.0.0.2 1.1.2.0 -1 9
- 0.015 0 1 encap 230 ------- 0 0.0.0.2 1.1.2.0 -1 9
r 0.01559 7 8 encap 230 ------- 0 0.0.0.2 1.1.2.0 -1 3
+ 0.01559 8 9 encap 230 ------- 0 0.0.0.2 1.1.2.0 -1 3
- 0.01559 8 9 encap 230 ------- 0 0.0.0.2 1.1.2.0 -1 3
r 0.015986 1 5 encap 230 ------- 0 0.0.0.2 1.1.2.0 -1 7
+ 0.015986 5 6 encap 230 ------- 0 0.0.0.2 1.1.2.0 -1 7
- 0.015986 5 6 encap 230 ------- 0 0.0.0.2 1.1.2.0 -1 7
r 0.016972 6 7 encap 230 ------- 0 0.0.0.2 1.1.2.0 -1 5
+ 0.016972 7 8 encap 230 ------- 0 0.0.0.2 1.1.2.0 -1 5
- 0.016972 7 8 encap 230 ------- 0 0.0.0.2 1.1.2.0 -1 5
r 0.017368 0 1 encap 230 ------- 0 0.0.0.2 1.1.2.0 -1 9
+ 0.017368 1 5 encap 230 ------- 0 0.0.0.2 1.1.2.0 -1 9
- 0.017368 1 5 encap 230 ------- 0 0.0.0.2 1.1.2.0 -1 9
r 0.017958 8 9 encap 230 ------- 0 0.0.0.2 1.1.2.0 -1 3
r 0.018354 5 6 encap 230 ------- 0 0.0.0.2 1.1.2.0 -1 7
+ 0.018354 6 7 encap 230 ------- 0 0.0.0.2 1.1.2.0 -1 7
- 0.018354 6 7 encap 230 ------- 0 0.0.0.2 1.1.2.0 -1 7
+ 0.01875 0 1 encap 230 ------- 0 0.0.0.2 1.1.2.0 -1 11
- 0.01875 0 1 encap 230 ------- 0 0.0.0.2 1.1.2.0 -1 11
r 0.01934 7 8 encap 230 ------- 0 0.0.0.2 1.1.2.0 -1 5
+ 0.01934 8 9 encap 230 ------- 0 0.0.0.2 1.1.2.0 -1 5
- 0.01934 8 9 encap 230 ------- 0 0.0.0.2 1.1.2.0 -1 5
r 0.019736 1 5 encap 230 ------- 0 0.0.0.2 1.1.2.0 -1 9
+ 0.019736 5 6 encap 230 ------- 0 0.0.0.2 1.1.2.0 -1 9
- 0.019736 5 6 encap 230 ------- 0 0.0.0.2 1.1.2.0 -1 9
r 0.020722 6 7 encap 230 ------- 0 0.0.0.2 1.1.2.0 -1 7
+ 0.020722 7 8 encap 230 ------- 0 0.0.0.2 1.1.2.0 -1 7
- 0.020722 7 8 encap 230 ------- 0 0.0.0.2 1.1.2.0 -1 7
r 0.021118 0 1 encap 230 ------- 0 0.0.0.2 1.1.2.0 -1 11
+ 0.021118 1 5 encap 230 ------- 0 0.0.0.2 1.1.2.0 -1 11
- 0.021118 1 5 encap 230 ------- 0 0.0.0.2 1.1.2.0 -1 11
r 0.021708 8 9 encap 230 ------- 0 0.0.0.2 1.1.2.0 -1 5
r 0.022104 5 6 encap 230 ------- 0 0.0.0.2 1.1.2.0 -1 9
+ 0.022104 6 7 encap 230 ------- 0 0.0.0.2 1.1.2.0 -1 9
- 0.022104 6 7 encap 230 ------- 0 0.0.0.2 1.1.2.0 -1 9
+ 0.0225 0 1 encap 230 ------- 0 0.0.0.2 1.1.2.0 -1 13
- 0.0225 0 1 encap 230 ------- 0 0.0.0.2 1.1.2.0 -1 13
r 0.02309 7 8 encap 230 ------- 0 0.0.0.2 1.1.2.0 -1 7
+ 0.02309 8 9 encap 230 ------- 0 0.0.0.2 1.1.2.0 -1 7
- 0.02309 8 9 encap 230 ------- 0 0.0.0.2 1.1.2.0 -1 7
r 0.023486 1 5 encap 230 ------- 0 0.0.0.2 1.1.2.0 -1 11
+ 0.023486 5 6 encap 230 ------- 0 0.0.0.2 1.1.2.0 -1 11
- 0.023486 5 6 encap 230 ------- 0 0.0.0.2 1.1.2.0 -1 11
r 0.024472 6 7 encap 230 ------- 0 0.0.0.2 1.1.2.0 -1 9
+ 0.024472 7 8 encap 230 ------- 0 0.0.0.2 1.1.2.0 -1 9
- 0.024472 7 8 encap 230 ------- 0 0.0.0.2 1.1.2.0 -1 9
r 0.024868 0 1 encap 230 ------- 0 0.0.0.2 1.1.2.0 -1 13
+ 0.024868 1 5 encap 230 ------- 0 0.0.0.2 1.1.2.0 -1 13
- 0.024868 1 5 encap 230 ------- 0 0.0.0.2 1.1.2.0 -1 13
r 0.025458 8 9 encap 230 ------- 0 0.0.0.2 1.1.2.0 -1 7
r 0.025854 5 6 encap 230 ------- 0 0.0.0.2 1.1.2.0 -1 11
+ 0.025854 6 7 encap 230 ------- 0 0.0.0.2 1.1.2.0 -1 11
- 0.025854 6 7 encap 230 ------- 0 0.0.0.2 1.1.2.0 -1 11
+ 0.02625 0 1 encap 230 ------- 0 0.0.0.2 1.1.2.0 -1 15
- 0.02625 0 1 encap 230 ------- 0 0.0.0.2 1.1.2.0 -1 15
r 0.02684 7 8 encap 230 ------- 0 0.0.0.2 1.1.2.0 -1 9
+ 0.02684 8 9 encap 230 ------- 0 0.0.0.2 1.1.2.0 -1 9
- 0.02684 8 9 encap 230 ------- 0 0.0.0.2 1.1.2.0 -1 9
r 0.027236 1 5 encap 230 ------- 0 0.0.0.2 1.1.2.0 -1 13
+ 0.027236 5 6 encap 230 ------- 0 0.0.0.2 1.1.2.0 -1 13
- 0.027236 5 6 encap 230 ------- 0 0.0.0.2 1.1.2.0 -1 13
r 0.028222 6 7 encap 230 ------- 0 0.0.0.2 1.1.2.0 -1 11
+ 0.028222 7 8 encap 230 ------- 0 0.0.0.2 1.1.2.0 -1 11
- 0.028222 7 8 encap 230 ------- 0 0.0.0.2 1.1.2.0 -1 11
r 0.028618 0 1 encap 230 ------- 0 0.0.0.2 1.1.2.0 -1 15
+ 0.028618 1 5 encap 230 ------- 0 0.0.0.2 1.1.2.0 -1 15
- 0.028618 1 5 encap 230 ------- 0 0.0.0.2 1.1.2.0 -1 15
r 0.029208 8 9 encap 230 ------- 0 0.0.0.2 1.1.2.0 -1 9
r 0.029604 5 6 encap 230 ------- 0 0.0.0.2 1.1.2.0 -1 13
+ 0.029604 6 7 encap 230 ------- 0 0.0.0.2 1.1.2.0 -1 13
- 0.029604 6 7 encap 230 ------- 0 0.0.0.2 1.1.2.0 -1 13
+ 0.03 0 1 encap 230 ------- 0 0.0.0.2 1.1.2.0 -1 17
- 0.03 0 1 encap 230 ------- 0 0.0.0.2 1.1.2.0 -1 17
r 0.03059 7 8 encap 230 ------- 0 0.0.0.2 1.1.2.0 -1 11
+ 0.03059 8 9 encap 230 ------- 0 0.0.0.2 1.1.2.0 -1 11
- 0.03059 8 9 encap 230 ------- 0 0.0.0.2 1.1.2.0 -1 11
r 0.030986 1 5 encap 230 ------- 0 0.0.0.2 1.1.2.0 -1 15
+ 0.030986 5 6 encap 230 ------- 0 0.0.0.2 1.1.2.0 -1 15
- 0.030986 5 6 encap 230 ------- 0 0.0.0.2 1.1.2.0 -1 15
r 0.031972 6 7 encap 230 ------- 0 0.0.0.2 1.1.2.0 -1 13
+ 0.031972 7 8 encap 230 ------- 0 0.0.0.2 1.1.2.0 -1 13
- 0.031972 7 8 encap 230 ------- 0 0.0.0.2 1.1.2.0 -1 13
r 0.032368 0 1 encap 230 ------- 0 0.0.0.2 1.1.2.0 -1 17
+ 0.032368 1 5 encap 230 ------- 0 0.0.0.2 1.1.2.0 -1 17
- 0.032368 1 5 encap 230 ------- 0 0.0.0.2 1.1.2.0 -1 17
r 0.032958 8 9 encap 230 ------- 0 0.0.0.2 1.1.2.0 -1 11
r 0.033354 5 6 encap 230 ------- 0 0.0.0.2 1.1.2.0 -1 15
+ 0.033354 6 7 encap 230 ------- 0 0.0.0.2 1.1.2.0 -1 15
- 0.033354 6 7 encap 230 ------- 0 0.0.0.2 1.1.2.0 -1 15
+ 0.03375 0 1 encap 230 ------- 0 0.0.0.2 1.1.2.0 -1 19
- 0.03375 0 1 encap 230 ------- 0 0.0.0.2 1.1.2.0 -1 19
r 0.03434 7 8 encap 230 ------- 0 0.0.0.2 1.1.2.0 -1 13
+ 0.03434 8 9 encap 230 ------- 0 0.0.0.2 1.1.2.0 -1 13
- 0.03434 8 9 encap 230 ------- 0 0.0.0.2 1.1.2.0 -1 13
r 0.034736 1 5 encap 230 ------- 0 0.0.0.2 1.1.2.0 -1 17
+ 0.034736 5 6 encap 230 ------- 0 0.0.0.2 1.1.2.0 -1 17
- 0.034736 5 6 encap 230 ------- 0 0.0.0.2 1.1.2.0 -1 17
r 0.035722 6 7 encap 230 ------- 0 0.0.0.2 1.1.2.0 -1 15
+ 0.035722 7 8 encap 230 ------- 0 0.0.0.2 1.1.2.0 -1 15
- 0.035722 7 8 encap 230 ------- 0 0.0.0.2 1.1.2.0 -1 15
r 0.036118 0 1 encap 230 ------- 0 0.0.0.2 1.1.2.0 -1 19
+ 0.036118 1 5 encap 230 ------- 0 0.0.0.2 1.1.2.0 -1 19
- 0.036118 1 5 encap 230 ------- 0 0.0.0.2 1.1.2.0 -1 19
r 0.036708 8 9 encap 230 ------- 0 0.0.0.2 1.1.2.0 -1 13
r 0.037104 5 6 encap 230 ------- 0 0.0.0.2 1.1.2.0 -1 17
+ 0.037104 6 7 encap 230 ------- 0 0.0.0.2 1.1.2.0 -1 17
- 0.037104 6 7 encap 230 ------- 0 0.0.0.2 1.1.2.0 -1 17
+ 0.0375 0 1 encap 230 ------- 0 0.0.0.2 1.1.2.0 -1 21
- 0.0375 0 1 encap 230 ------- 0 0.0.0.2 1.1.2.0 -1 21
r 0.03809 7 8 encap 230 ------- 0 0.0.0.2 1.1.2.0 -1 15
+ 0.03809 8 9 encap 230 ------- 0 0.0.0.2 1.1.2.0 -1 15
- 0.03809 8 9 encap 230 ------- 0 0.0.0.2 1.1.2.0 -1 15
r 0.038486 1 5 encap 230 ------- 0 0.0.0.2 1.1.2.0 -1 19
+ 0.038486 5 6 encap 230 ------- 0 0.0.0.2 1.1.2.0 -1 19
- 0.038486 5 6 encap 230 ------- 0 0.0.0.2 1.1.2.0 -1 19
r 0.039472 6 7 encap 230 ------- 0 0.0.0.2 1.1.2.0 -1 17
+ 0.039472 7 8 encap 230 ------- 0 0.0.0.2 1.1.2.0 -1 17
- 0.039472 7 8 encap 230 ------- 0 0.0.0.2 1.1.2.0 -1 17
r 0.039868 0 1 encap 230 ------- 0 0.0.0.2 1.1.2.0 -1 21
+ 0.039868 1 5 encap 230 ------- 0 0.0.0.2 1.1.2.0 -1 21
- 0.039868 1 5 encap 230 ------- 0 0.0.0.2 1.1.2.0 -1 21
r 0.040458 8 9 encap 230 ------- 0 0.0.0.2 1.1.2.0 -1 15
r 0.040854 5 6 encap 230 ------- 0 0.0.0.2 1.1.2.0 -1 19
+ 0.040854 6 7 encap 230 ------- 0 0.0.0.2 1.1.2.0 -1 19
- 0.040854 6 7 encap 230 ------- 0 0.0.0.2 1.1.2.0 -1 19
+ 0.04125 0 1 encap 230 ------- 0 0.0.0.2 1.1.2.0 -1 23
- 0.04125 0 1 encap 230 ------- 0 0.0.0.2 1.1.2.0 -1 23
r 0.04184 7 8 encap 230 ------- 0 0.0.0.2 1.1.2.0 -1 17
+ 0.04184 8 9 encap 230 ------- 0 0.0.0.2 1.1.2.0 -1 17
- 0.04184 8 9 encap 230 ------- 0 0.0.0.2 1.1.2.0 -1 17
r 0.042236 1 5 encap 230 ------- 0 0.0.0.2 1.1.2.0 -1 21
+ 0.042236 5 6 encap 230 ------- 0 0.0.0.2 1.1.2.0 -1 21
- 0.042236 5 6 encap 230 ------- 0 0.0.0.2 1.1.2.0 -1 21
r 0.043222 6 7 encap 230 ------- 0 0.0.0.2 1.1.2.0 -1 19
+ 0.043222 7 8 encap 230 ------- 0 0.0.0.2 1.1.2.0 -1 19
- 0.043222 7 8 encap 230 ------- 0 0.0.0.2 1.1.2.0 -1 19
r 0.043618 0 1 encap 230 ------- 0 0.0.0.2 1.1.2.0 -1 23
+ 0.043618 1 5 encap 230 ------- 0 0.0.0.2 1.1.2.0 -1 23
- 0.043618 1 5 encap 230 ------- 0 0.0.0.2 1.1.2.0 -1 23
r 0.044208 8 9 encap 230 ------- 0 0.0.0.2 1.1.2.0 -1 17
r 0.044604 5 6 encap 230 ------- 0 0.0.0.2 1.1.2.0 -1 21
+ 0.044604 6 7 encap 230 ------- 0 0.0.0.2 1.1.2.0 -1 21
- 0.044604 6 7 encap 230 ------- 0 0.0.0.2 1.1.2.0 -1 21
+ 0.045 0 1 encap 230 ------- 0 0.0.0.2 1.1.2.0 -1 25
- 0.045 0 1 encap 230 ------- 0 0.0.0.2 1.1.2.0 -1 25
r 0.04559 7 8 encap 230 ------- 0 0.0.0.2 1.1.2.0 -1 19
+ 0.04559 8 9 encap 230 ------- 0 0.0.0.2 1.1.2.0 -1 19
- 0.04559 8 9 encap 230 ------- 0 0.0.0.2 1.1.2.0 -1 19
r 0.045986 1 5 encap 230 ------- 0 0.0.0.2 1.1.2.0 -1 23
+ 0.045986 5 6 encap 230 ------- 0 0.0.0.2 1.1.2.0 -1 23
- 0.045986 5 6 encap 230 ------- 0 0.0.0.2 1.1.2.0 -1 23
r 0.046972 6 7 encap 230 ------- 0 0.0.0.2 1.1.2.0 -1 21
+ 0.046972 7 8 encap 230 ------- 0 0.0.0.2 1.1.2.0 -1 21
- 0.046972 7 8 encap 230 ------- 0 0.0.0.2 1.1.2.0 -1 21
r 0.047368 0 1 encap 230 ------- 0 0.0.0.2 1.1.2.0 -1 25
+ 0.047368 1 5 encap 230 ------- 0 0.0.0.2 1.1.2.0 -1 25
- 0.047368 1 5 encap 230 ------- 0 0.0.0.2 1.1.2.0 -1 25
r 0.047958 8 9 encap 230 ------- 0 0.0.0.2 1.1.2.0 -1 19
r 0.048354 5 6 encap 230 ------- 0 0.0.0.2 1.1.2.0 -1 23
+ 0.048354 6 7 encap 230 ------- 0 0.0.0.2 1.1.2.0 -1 23
- 0.048354 6 7 encap 230 ------- 0 0.0.0.2 1.1.2.0 -1 23
+ 0.04875 0 1 encap 230 ------- 0 0.0.0.2 1.1.2.0 -1 27
- 0.04875 0 1 encap 230 ------- 0 0.0.0.2 1.1.2.0 -1 27
r 0.04934 7 8 encap 230 ------- 0 0.0.0.2 1.1.2.0 -1 21
+ 0.04934 8 9 encap 230 ------- 0 0.0.0.2 1.1.2.0 -1 21
- 0.04934 8 9 encap 230 ------- 0 0.0.0.2 1.1.2.0 -1 21
r 0.049736 1 5 encap 230 ------- 0 0.0.0.2 1.1.2.0 -1 25
+ 0.049736 5 6 encap 230 ------- 0 0.0.0.2 1.1.2.0 -1 25
- 0.049736 5 6 encap 230 ------- 0 0.0.0.2 1.1.2.0 -1 25
r 0.050722 6 7 encap 230 ------- 0 0.0.0.2 1.1.2.0 -1 23
+ 0.050722 7 8 encap 230 ------- 0 0.0.0.2 1.1.2.0 -1 23
- 0.050722 7 8 encap 230 ------- 0 0.0.0.2 1.1.2.0 -1 23
r 0.051118 0 1 encap 230 ------- 0 0.0.0.2 1.1.2.0 -1 27
+ 0.051118 1 5 encap 230 ------- 0 0.0.0.2 1.1.2.0 -1 27
- 0.051118 1 5 encap 230 ------- 0 0.0.0.2 1.1.2.0 -1 27
r 0.051708 8 9 encap 230 ------- 0 0.0.0.2 1.1.2.0 -1 21
r 0.052104 5 6 encap 230 ------- 0 0.0.0.2 1.1.2.0 -1 25
+ 0.052104 6 7 encap 230 ------- 0 0.0.0.2 1.1.2.0 -1 25
- 0.052104 6 7 encap 230 ------- 0 0.0.0.2 1.1.2.0 -1 25
+ 0.0525 0 1 encap 230 ------- 0 0.0.0.2 1.1.2.0 -1 29
- 0.0525 0 1 encap 230 ------- 0 0.0.0.2 1.1.2.0 -1 29
r 0.05309 7 8 encap 230 ------- 0 0.0.0.2 1.1.2.0 -1 23
+ 0.05309 8 9 encap 230 ------- 0 0.0.0.2 1.1.2.0 -1 23
- 0.05309 8 9 encap 230 ------- 0 0.0.0.2 1.1.2.0 -1 23
r 0.053486 1 5 encap 230 ------- 0 0.0.0.2 1.1.2.0 -1 27
+ 0.053486 5 6 encap 230 ------- 0 0.0.0.2 1.1.2.0 -1 27
- 0.053486 5 6 encap 230 ------- 0 0.0.0.2 1.1.2.0 -1 27
r 0.054472 6 7 encap 230 ------- 0 0.0.0.2 1.1.2.0 -1 25
+ 0.054472 7 8 encap 230 ------- 0 0.0.0.2 1.1.2.0 -1 25
- 0.054472 7 8 encap 230 ------- 0 0.0.0.2 1.1.2.0 -1 25
r 0.054868 0 1 encap 230 ------- 0 0.0.0.2 1.1.2.0 -1 29
+ 0.054868 1 5 encap 230 ------- 0 0.0.0.2 1.1.2.0 -1 29
- 0.054868 1 5 encap 230 ------- 0 0.0.0.2 1.1.2.0 -1 29
r 0.055458 8 9 encap 230 ------- 0 0.0.0.2 1.1.2.0 -1 23
r 0.055854 5 6 encap 230 ------- 0 0.0.0.2 1.1.2.0 -1 27
+ 0.055854 6 7 encap 230 ------- 0 0.0.0.2 1.1.2.0 -1 27
- 0.055854 6 7 encap 230 ------- 0 0.0.0.2 1.1.2.0 -1 27
+ 0.05625 0 1 encap 230 ------- 0 0.0.0.2 1.1.2.0 -1 31
- 0.05625 0 1 encap 230 ------- 0 0.0.0.2 1.1.2.0 -1 31
r 0.05684 7 8 encap 230 ------- 0 0.0.0.2 1.1.2.0 -1 25
+ 0.05684 8 9 encap 230 ------- 0 0.0.0.2 1.1.2.0 -1 25
- 0.05684 8 9 encap 230 ------- 0 0.0.0.2 1.1.2.0 -1 25
r 0.057236 1 5 encap 230 ------- 0 0.0.0.2 1.1.2.0 -1 29
+ 0.057236 5 6 encap 230 ------- 0 0.0.0.2 1.1.2.0 -1 29
- 0.057236 5 6 encap 230 ------- 0 0.0.0.2 1.1.2.0 -1 29
r 0.058222 6 7 encap 230 ------- 0 0.0.0.2 1.1.2.0 -1 27
+ 0.058222 7 8 encap 230 ------- 0 0.0.0.2 1.1.2.0 -1 27
- 0.058222 7 8 encap 230 ------- 0 0.0.0.2 1.1.2.0 -1 27
r 0.058618 0 1 encap 230 ------- 0 0.0.0.2 1.1.2.0 -1 31
+ 0.058618 1 5 encap 230 ------- 0 0.0.0.2 1.1.2.0 -1 31
- 0.058618 1 5 encap 230 ------- 0 0.0.0.2 1.1.2.0 -1 31
r 0.059208 8 9 encap 230 ------- 0 0.0.0.2 1.1.2.0 -1 25
r 0.059604 5 6 encap 230 ------- 0 0.0.0.2 1.1.2.0 -1 29
+ 0.059604 6 7 encap 230 ------- 0 0.0.0.2 1.1.2.0 -1 29
- 0.059604 6 7 encap 230 ------- 0 0.0.0.2 1.1.2.0 -1 29
+ 0.06 0 1 encap 230 ------- 0 0.0.0.2 1.1.2.0 -1 33
- 0.06 0 1 encap 230 ------- 0 0.0.0.2 1.1.2.0 -1 33
r 0.06059 7 8 encap 230 ------- 0 0.0.0.2 1.1.2.0 -1 27
+ 0.06059 8 9 encap 230 ------- 0 0.0.0.2 1.1.2.0 -1 27
- 0.06059 8 9 encap 230 ------- 0 0.0.0.2 1.1.2.0 -1 27
r 0.060986 1 5 encap 230 ------- 0 0.0.0.2 1.1.2.0 -1 31
+ 0.060986 5 6 encap 230 ------- 0 0.0.0.2 1.1.2.0 -1 31
- 0.060986 5 6 encap 230 ------- 0 0.0.0.2 1.1.2.0 -1 31
r 0.061972 6 7 encap 230 ------- 0 0.0.0.2 1.1.2.0 -1 29
+ 0.061972 7 8 encap 230 ------- 0 0.0.0.2 1.1.2.0 -1 29
- 0.061972 7 8 encap 230 ------- 0 0.0.0.2 1.1.2.0 -1 29
r 0.062368 0 1 encap 230 ------- 0 0.0.0.2 1.1.2.0 -1 33
+ 0.062368 1 5 encap 230 ------- 0 0.0.0.2 1.1.2.0 -1 33
- 0.062368 1 5 encap 230 ------- 0 0.0.0.2 1.1.2.0 -1 33
r 0.062958 8 9 encap 230 ------- 0 0.0.0.2 1.1.2.0 -1 27
r 0.063354 5 6 encap 230 ------- 0 0.0.0.2 1.1.2.0 -1 31
+ 0.063354 6 7 encap 230 ------- 0 0.0.0.2 1.1.2.0 -1 31
- 0.063354 6 7 encap 230 ------- 0 0.0.0.2 1.1.2.0 -1 31
+ 0.06375 0 1 encap 230 ------- 0 0.0.0.2 1.1.2.0 -1 35
- 0.06375 0 1 encap 230 ------- 0 0.0.0.2 1.1.2.0 -1 35
r 0.06434 7 8 encap 230 ------- 0 0.0.0.2 1.1.2.0 -1 29
+ 0.06434 8 9 encap 230 ------- 0 0.0.0.2 1.1.2.0 -1 29
- 0.06434 8 9 encap 230 ------- 0 0.0.0.2 1.1.2.0 -1 29
r 0.064736 1 5 encap 230 ------- 0 0.0.0.2 1.1.2.0 -1 33
+ 0.064736 5 6 encap 230 ------- 0 0.0.0.2 1.1.2.0 -1 33
- 0.064736 5 6 encap 230 ------- 0 0.0.0.2 1.1.2.0 -1 33
r 0.065722 6 7 encap 230 ------- 0 0.0.0.2 1.1.2.0 -1 31
+ 0.065722 7 8 encap 230 ------- 0 0.0.0.2 1.1.2.0 -1 31
- 0.065722 7 8 encap 230 ------- 0 0.0.0.2 1.1.2.0 -1 31
r 0.066118 0 1 encap 230 ------- 0 0.0.0.2 1.1.2.0 -1 35
+ 0.066118 1 5 encap 230 ------- 0 0.0.0.2 1.1.2.0 -1 35
- 0.066118 1 5 encap 230 ------- 0 0.0.0.2 1.1.2.0 -1 35
r 0.066708 8 9 encap 230 ------- 0 0.0.0.2 1.1.2.0 -1 29
r 0.067104 5 6 encap 230 ------- 0 0.0.0.2 1.1.2.0 -1 33
+ 0.067104 6 7 encap 230 ------- 0 0.0.0.2 1.1.2.0 -1 33
- 0.067104 6 7 encap 230 ------- 0 0.0.0.2 1.1.2.0 -1 33
+ 0.0675 0 1 encap 230 ------- 0 0.0.0.2 1.1.2.0 -1 37
- 0.0675 0 1 encap 230 ------- 0 0.0.0.2 1.1.2.0 -1 37
r 0.06809 7 8 encap 230 ------- 0 0.0.0.2 1.1.2.0 -1 31
+ 0.06809 8 9 encap 230 ------- 0 0.0.0.2 1.1.2.0 -1 31
- 0.06809 8 9 encap 230 ------- 0 0.0.0.2 1.1.2.0 -1 31
r 0.068486 1 5 encap 230 ------- 0 0.0.0.2 1.1.2.0 -1 35
+ 0.068486 5 6 encap 230 ------- 0 0.0.0.2 1.1.2.0 -1 35
- 0.068486 5 6 encap 230 ------- 0 0.0.0.2 1.1.2.0 -1 35
r 0.069472 6 7 encap 230 ------- 0 0.0.0.2 1.1.2.0 -1 33
+ 0.069472 7 8 encap 230 ------- 0 0.0.0.2 1.1.2.0 -1 33
- 0.069472 7 8 encap 230 ------- 0 0.0.0.2 1.1.2.0 -1 33
r 0.069868 0 1 encap 230 ------- 0 0.0.0.2 1.1.2.0 -1 37
+ 0.069868 1 5 encap 230 ------- 0 0.0.0.2 1.1.2.0 -1 37
- 0.069868 1 5 encap 230 ------- 0 0.0.0.2 1.1.2.0 -1 37
r 0.070458 8 9 encap 230 ------- 0 0.0.0.2 1.1.2.0 -1 31
r 0.070854 5 6 encap 230 ------- 0 0.0.0.2 1.1.2.0 -1 35
+ 0.070854 6 7 encap 230 ------- 0 0.0.0.2 1.1.2.0 -1 35
- 0.070854 6 7 encap 230 ------- 0 0.0.0.2 1.1.2.0 -1 35
+ 0.07125 0 1 encap 230 ------- 0 0.0.0.2 1.1.2.0 -1 39
- 0.07125 0 1 encap 230 ------- 0 0.0.0.2 1.1.2.0 -1 39
r 0.07184 7 8 encap 230 ------- 0 0.0.0.2 1.1.2.0 -1 33
+ 0.07184 8 9 encap 230 ------- 0 0.0.0.2 1.1.2.0 -1 33
- 0.07184 8 9 encap 230 ------- 0 0.0.0.2 1.1.2.0 -1 33
r 0.072236 1 5 encap 230 ------- 0 0.0.0.2 1.1.2.0 -1 37
+ 0.072236 5 6 encap 230 ------- 0 0.0.0.2 1.1.2.0 -1 37
- 0.072236 5 6 encap 230 ------- 0 0.0.0.2 1.1.2.0 -1 37
r 0.073222 6 7 encap 230 ------- 0 0.0.0.2 1.1.2.0 -1 35
+ 0.073222 7 8 encap 230 ------- 0 0.0.0.2 1.1.2.0 -1 35
- 0.073222 7 8 encap 230 ------- 0 0.0.0.2 1.1.2.0 -1 35
r 0.073618 0 1 encap 230 ------- 0 0.0.0.2 1.1.2.0 -1 39
+ 0.073618 1 5 encap 230 ------- 0 0.0.0.2 1.1.2.0 -1 39
- 0.073618 1 5 encap 230 ------- 0 0.0.0.2 1.1.2.0 -1 39
r 0.074208 8 9 encap 230 ------- 0 0.0.0.2 1.1.2.0 -1 33
r 0.074604 5 6 encap 230 ------- 0 0.0.0.2 1.1.2.0 -1 37
+ 0.074604 6 7 encap 230 ------- 0 0.0.0.2 1.1.2.0 -1 37
- 0.074604 6 7 encap 230 ------- 0 0.0.0.2 1.1.2.0 -1 37
+ 0.075 0 1 encap 230 ------- 0 0.0.0.2 1.1.2.0 -1 41
- 0.075 0 1 encap 230 ------- 0 0.0.0.2 1.1.2.0 -1 41
r 0.07559 7 8 encap 230 ------- 0 0.0.0.2 1.1.2.0 -1 35
+ 0.07559 8 9 encap 230 ------- 0 0.0.0.2 1.1.2.0 -1 35
- 0.07559 8 9 encap 230 ------- 0 0.0.0.2 1.1.2.0 -1 35
r 0.075986 1 5 encap 230 ------- 0 0.0.0.2 1.1.2.0 -1 39
+ 0.075986 5 6 encap 230 ------- 0 0.0.0.2 1.1.2.0 -1 39
- 0.075986 5 6 encap 230 ------- 0 0.0.0.2 1.1.2.0 -1 39
r 0.076972 6 7 encap 230 ------- 0 0.0.0.2 1.1.2.0 -1 37
+ 0.076972 7 8 encap 230 ------- 0 0.0.0.2 1.1.2.0 -1 37
- 0.076972 7 8 encap 230 ------- 0 0.0.0.2 1.1.2.0 -1 37
r 0.077368 0 1 encap 230 ------- 0 0.0.0.2 1.1.2.0 -1 41
+ 0.077368 1 5 encap 230 ------- 0 0.0.0.2 1.1.2.0 -1 41
- 0.077368 1 5 encap 230 ------- 0 0.0.0.2 1.1.2.0 -1 41
r 0.077958 8 9 encap 230 ------- 0 0.0.0.2 1.1.2.0 -1 35
r 0.078354 5 6 encap 230 ------- 0 0.0.0.2 1.1.2.0 -1 39
+ 0.078354 6 7 encap 230 ------- 0 0.0.0.2 1.1.2.0 -1 39
- 0.078354 6 7 encap 230 ------- 0 0.0.0.2 1.1.2.0 -1 39
+ 0.07875 0 1 encap 230 ------- 0 0.0.0.2 1.1.2.0 -1 43
- 0.07875 0 1 encap 230 ------- 0 0.0.0.2 1.1.2.0 -1 43
r 0.07934 7 8 encap 230 ------- 0 0.0.0.2 1.1.2.0 -1 37
+ 0.07934 8 9 encap 230 ------- 0 0.0.0.2 1.1.2.0 -1 37
- 0.07934 8 9 encap 230 ------- 0 0.0.0.2 1.1.2.0 -1 37
r 0.079736 1 5 encap 230 ------- 0 0.0.0.2 1.1.2.0 -1 41
+ 0.079736 5 6 encap 230 ------- 0 0.0.0.2 1.1.2.0 -1 41
- 0.079736 5 6 encap 230 ------- 0 0.0.0.2 1.1.2.0 -1 41
r 0.080722 6 7 encap 230 ------- 0 0.0.0.2 1.1.2.0 -1 39
+ 0.080722 7 8 encap 230 ------- 0 0.0.0.2 1.1.2.0 -1 39
- 0.080722 7 8 encap 230 ------- 0 0.0.0.2 1.1.2.0 -1 39
r 0.081118 0 1 encap 230 ------- 0 0.0.0.2 1.1.2.0 -1 43
+ 0.081118 1 5 encap 230 ------- 0 0.0.0.2 1.1.2.0 -1 43
- 0.081118 1 5 encap 230 ------- 0 0.0.0.2 1.1.2.0 -1 43
r 0.081708 8 9 encap 230 ------- 0 0.0.0.2 1.1.2.0 -1 37
r 0.082104 5 6 encap 230 ------- 0 0.0.0.2 1.1.2.0 -1 41
+ 0.082104 6 7 encap 230 ------- 0 0.0.0.2 1.1.2.0 -1 41
- 0.082104 6 7 encap 230 ------- 0 0.0.0.2 1.1.2.0 -1 41
+ 0.0825 0 1 encap 230 ------- 0 0.0.0.2 1.1.2.0 -1 45
- 0.0825 0 1 encap 230 ------- 0 0.0.0.2 1.1.2.0 -1 45
r 0.08309 7 8 encap 230 ------- 0 0.0.0.2 1.1.2.0 -1 39
+ 0.08309 8 9 encap 230 ------- 0 0.0.0.2 1.1.2.0 -1 39
- 0.08309 8 9 encap 230 ------- 0 0.0.0.2 1.1.2.0 -1 39
r 0.083486 1 5 encap 230 ------- 0 0.0.0.2 1.1.2.0 -1 43
+ 0.083486 5 6 encap 230 ------- 0 0.0.0.2 1.1.2.0 -1 43
- 0.083486 5 6 encap 230 ------- 0 0.0.0.2 1.1.2.0 -1 43
r 0.084472 6 7 encap 230 ------- 0 0.0.0.2 1.1.2.0 -1 41
+ 0.084472 7 8 encap 230 ------- 0 0.0.0.2 1.1.2.0 -1 41
- 0.084472 7 8 encap 230 ------- 0 0.0.0.2 1.1.2.0 -1 41
r 0.084868 0 1 encap 230 ------- 0 0.0.0.2 1.1.2.0 -1 45
+ 0.084868 1 5 encap 230 ------- 0 0.0.0.2 1.1.2.0 -1 45
- 0.084868 1 5 encap 230 ------- 0 0.0.0.2 1.1.2.0 -1 45
r 0.085458 8 9 encap 230 ------- 0 0.0.0.2 1.1.2.0 -1 39
r 0.085854 5 6 encap 230 ------- 0 0.0.0.2 1.1.2.0 -1 43
+ 0.085854 6 7 encap 230 ------- 0 0.0.0.2 1.1.2.0 -1 43
- 0.085854 6 7 encap 230 ------- 0 0.0.0.2 1.1.2.0 -1 43
+ 0.08625 0 1 encap 230 ------- 0 0.0.0.2 1.1.2.0 -1 47
- 0.08625 0 1 encap 230 ------- 0 0.0.0.2 1.1.2.0 -1 47
r 0.08684 7 8 encap 230 ------- 0 0.0.0.2 1.1.2.0 -1 41
+ 0.08684 8 9 encap 230 ------- 0 0.0.0.2 1.1.2.0 -1 41
- 0.08684 8 9 encap 230 ------- 0 0.0.0.2 1.1.2.0 -1 41
r 0.087236 1 5 encap 230 ------- 0 0.0.0.2 1.1.2.0 -1 45
+ 0.087236 5 6 encap 230 ------- 0 0.0.0.2 1.1.2.0 -1 45
- 0.087236 5 6 encap 230 ------- 0 0.0.0.2 1.1.2.0 -1 45
r 0.088222 6 7 encap 230 ------- 0 0.0.0.2 1.1.2.0 -1 43
+ 0.088222 7 8 encap 230 ------- 0 0.0.0.2 1.1.2.0 -1 43
- 0.088222 7 8 encap 230 ------- 0 0.0.0.2 1.1.2.0 -1 43
r 0.088618 0 1 encap 230 ------- 0 0.0.0.2 1.1.2.0 -1 47
+ 0.088618 1 5 encap 230 ------- 0 0.0.0.2 1.1.2.0 -1 47
- 0.088618 1 5 encap 230 ------- 0 0.0.0.2 1.1.2.0 -1 47
r 0.089208 8 9 encap 230 ------- 0 0.0.0.2 1.1.2.0 -1 41
r 0.089604 5 6 encap 230 ------- 0 0.0.0.2 1.1.2.0 -1 45
+ 0.089604 6 7 encap 230 ------- 0 0.0.0.2 1.1.2.0 -1 45
- 0.089604 6 7 encap 230 ------- 0 0.0.0.2 1.1.2.0 -1 45
+ 0.09 0 1 encap 230 ------- 0 0.0.0.2 1.1.2.0 -1 49
- 0.09 0 1 encap 230 ------- 0 0.0.0.2 1.1.2.0 -1 49
r 0.09059 7 8 encap 230 ------- 0 0.0.0.2 1.1.2.0 -1 43
+ 0.09059 8 9 encap 230 ------- 0 0.0.0.2 1.1.2.0 -1 43
- 0.09059 8 9 encap 230 ------- 0 0.0.0.2 1.1.2.0 -1 43
r 0.090986 1 5 encap 230 ------- 0 0.0.0.2 1.1.2.0 -1 47
+ 0.090986 5 6 encap 230 ------- 0 0.0.0.2 1.1.2.0 -1 47
- 0.090986 5 6 encap 230 ------- 0 0.0.0.2 1.1.2.0 -1 47
r 0.091972 6 7 encap 230 ------- 0 0.0.0.2 1.1.2.0 -1 45
+ 0.091972 7 8 encap 230 ------- 0 0.0.0.2 1.1.2.0 -1 45
- 0.091972 7 8 encap 230 ------- 0 0.0.0.2 1.1.2.0 -1 45
r 0.092368 0 1 encap 230 ------- 0 0.0.0.2 1.1.2.0 -1 49
+ 0.092368 1 5 encap 230 ------- 0 0.0.0.2 1.1.2.0 -1 49
- 0.092368 1 5 encap 230 ------- 0 0.0.0.2 1.1.2.0 -1 49
r 0.092958 8 9 encap 230 ------- 0 0.0.0.2 1.1.2.0 -1 43
r 0.093354 5 6 encap 230 ------- 0 0.0.0.2 1.1.2.0 -1 47
+ 0.093354 6 7 encap 230 ------- 0 0.0.0.2 1.1.2.0 -1 47
- 0.093354 6 7 encap 230 ------- 0 0.0.0.2 1.1.2.0 -1 47
+ 0.09375 0 1 encap 230 ------- 0 0.0.0.2 1.1.2.0 -1 51
- 0.09375 0 1 encap 230 ------- 0 0.0.0.2 1.1.2.0 -1 51
r 0.09434 7 8 encap 230 ------- 0 0.0.0.2 1.1.2.0 -1 45
+ 0.09434 8 9 encap 230 ------- 0 0.0.0.2 1.1.2.0 -1 45
- 0.09434 8 9 encap 230 ------- 0 0.0.0.2 1.1.2.0 -1 45
r 0.094736 1 5 encap 230 ------- 0 0.0.0.2 1.1.2.0 -1 49
+ 0.094736 5 6 encap 230 ------- 0 0.0.0.2 1.1.2.0 -1 49
- 0.094736 5 6 encap 230 ------- 0 0.0.0.2 1.1.2.0 -1 49
r 0.095722 6 7 encap 230 ------- 0 0.0.0.2 1.1.2.0 -1 47
+ 0.095722 7 8 encap 230 ------- 0 0.0.0.2 1.1.2.0 -1 47
- 0.095722 7 8 encap 230 ------- 0 0.0.0.2 1.1.2.0 -1 47
r 0.096118 0 1 encap 230 ------- 0 0.0.0.2 1.1.2.0 -1 51
+ 0.096118 1 5 encap 230 ------- 0 0.0.0.2 1.1.2.0 -1 51
- 0.096118 1 5 encap 230 ------- 0 0.0.0.2 1.1.2.0 -1 51
r 0.096708 8 9 encap 230 ------- 0 0.0.0.2 1.1.2.0 -1 45
r 0.097104 5 6 encap 230 ------- 0 0.0.0.2 1.1.2.0 -1 49
+ 0.097104 6 7 encap 230 ------- 0 0.0.0.2 1.1.2.0 -1 49
- 0.097104 6 7 encap 230 ------- 0 0.0.0.2 1.1.2.0 -1 49
+ 0.0975 0 1 encap 230 ------- 0 0.0.0.2 1.1.2.0 -1 53
- 0.0975 0 1 encap 230 ------- 0 0.0.0.2 1.1.2.0 -1 53
r 0.09809 7 8 encap 230 ------- 0 0.0.0.2 1.1.2.0 -1 47
+ 0.09809 8 9 encap 230 ------- 0 0.0.0.2 1.1.2.0 -1 47
- 0.09809 8 9 encap 230 ------- 0 0.0.0.2 1.1.2.0 -1 47
r 0.098486 1 5 encap 230 ------- 0 0.0.0.2 1.1.2.0 -1 51
+ 0.098486 5 6 encap 230 ------- 0 0.0.0.2 1.1.2.0 -1 51
- 0.098486 5 6 encap 230 ------- 0 0.0.0.2 1.1.2.0 -1 51
r 0.099472 6 7 encap 230 ------- 0 0.0.0.2 1.1.2.0 -1 49
+ 0.099472 7 8 encap 230 ------- 0 0.0.0.2 1.1.2.0 -1 49
- 0.099472 7 8 encap 230 ------- 0 0.0.0.2 1.1.2.0 -1 49
r 0.099868 0 1 encap 230 ------- 0 0.0.0.2 1.1.2.0 -1 53
+ 0.099868 1 5 encap 230 ------- 0 0.0.0.2 1.1.2.0 -1 53
- 0.099868 1 5 encap 230 ------- 0 0.0.0.2 1.1.2.0 -1 53
r 0.100458 8 9 encap 230 ------- 0 0.0.0.2 1.1.2.0 -1 47
r 0.100854 5 6 encap 230 ------- 0 0.0.0.2 1.1.2.0 -1 51
+ 0.100854 6 7 encap 230 ------- 0 0.0.0.2 1.1.2.0 -1 51
- 0.100854 6 7 encap 230 ------- 0 0.0.0.2 1.1.2.0 -1 51
+ 0.10125 0 1 encap 230 ------- 0 0.0.0.2 1.1.2.0 -1 55
- 0.10125 0 1 encap 230 ------- 0 0.0.0.2 1.1.2.0 -1 55
r 0.10184 7 8 encap 230 ------- 0 0.0.0.2 1.1.2.0 -1 49
+ 0.10184 8 9 encap 230 ------- 0 0.0.0.2 1.1.2.0 -1 49
- 0.10184 8 9 encap 230 ------- 0 0.0.0.2 1.1.2.0 -1 49
r 0.102236 1 5 encap 230 ------- 0 0.0.0.2 1.1.2.0 -1 53
+ 0.102236 5 6 encap 230 ------- 0 0.0.0.2 1.1.2.0 -1 53
- 0.102236 5 6 encap 230 ------- 0 0.0.0.2 1.1.2.0 -1 53
r 0.103222 6 7 encap 230 ------- 0 0.0.0.2 1.1.2.0 -1 51
+ 0.103222 7 8 encap 230 ------- 0 0.0.0.2 1.1.2.0 -1 51
- 0.103222 7 8 encap 230 ------- 0 0.0.0.2 1.1.2.0 -1 51
r 0.103618 0 1 encap 230 ------- 0 0.0.0.2 1.1.2.0 -1 55
+ 0.103618 1 5 encap 230 ------- 0 0.0.0.2 1.1.2.0 -1 55
- 0.103618 1 5 encap 230 ------- 0 0.0.0.2 1.1.2.0 -1 55
r 0.104208 8 9 encap 230 ------- 0 0.0.0.2 1.1.2.0 -1 49
r 0.104604 5 6 encap 230 ------- 0 0.0.0.2 1.1.2.0 -1 53
+ 0.104604 6 7 encap 230 ------- 0 0.0.0.2 1.1.2.0 -1 53
- 0.104604 6 7 encap 230 ------- 0 0.0.0.2 1.1.2.0 -1 53
+ 0.105 0 1 encap 230 ------- 0 0.0.0.2 1.1.2.0 -1 57
- 0.105 0 1 encap 230 ------- 0 0.0.0.2 1.1.2.0 -1 57
r 0.10559 7 8 encap 230 ------- 0 0.0.0.2 1.1.2.0 -1 51
+ 0.10559 8 9 encap 230 ------- 0 0.0.0.2 1.1.2.0 -1 51
- 0.10559 8 9 encap 230 ------- 0 0.0.0.2 1.1.2.0 -1 51
r 0.105986 1 5 encap 230 ------- 0 0.0.0.2 1.1.2.0 -1 55
+ 0.105986 5 6 encap 230 ------- 0 0.0.0.2 1.1.2.0 -1 55
- 0.105986 5 6 encap 230 ------- 0 0.0.0.2 1.1.2.0 -1 55
r 0.106972 6 7 encap 230 ------- 0 0.0.0.2 1.1.2.0 -1 53
+ 0.106972 7 8 encap 230 ------- 0 0.0.0.2 1.1.2.0 -1 53
- 0.106972 7 8 encap 230 ------- 0 0.0.0.2 1.1.2.0 -1 53
r 0.107368 0 1 encap 230 ------- 0 0.0.0.2 1.1.2.0 -1 57
+ 0.107368 1 5 encap 230 ------- 0 0.0.0.2 1.1.2.0 -1 57
- 0.107368 1 5 encap 230 ------- 0 0.0.0.2 1.1.2.0 -1 57
r 0.107958 8 9 encap 230 ------- 0 0.0.0.2 1.1.2.0 -1 51
r 0.108354 5 6 encap 230 ------- 0 0.0.0.2 1.1.2.0 -1 55
+ 0.108354 6 7 encap 230 ------- 0 0.0.0.2 1.1.2.0 -1 55
- 0.108354 6 7 encap 230 ------- 0 0.0.0.2 1.1.2.0 -1 55
+ 0.10875 0 1 encap 230 ------- 0 0.0.0.2 1.1.2.0 -1 59
- 0.10875 0 1 encap 230 ------- 0 0.0.0.2 1.1.2.0 -1 59
r 0.10934 7 8 encap 230 ------- 0 0.0.0.2 1.1.2.0 -1 53
+ 0.10934 8 9 encap 230 ------- 0 0.0.0.2 1.1.2.0 -1 53
- 0.10934 8 9 encap 230 ------- 0 0.0.0.2 1.1.2.0 -1 53
r 0.109736 1 5 encap 230 ------- 0 0.0.0.2 1.1.2.0 -1 57
+ 0.109736 5 6 encap 230 ------- 0 0.0.0.2 1.1.2.0 -1 57
- 0.109736 5 6 encap 230 ------- 0 0.0.0.2 1.1.2.0 -1 57
r 0.110722 6 7 encap 230 ------- 0 0.0.0.2 1.1.2.0 -1 55
+ 0.110722 7 8 encap 230 ------- 0 0.0.0.2 1.1.2.0 -1 55
- 0.110722 7 8 encap 230 ------- 0 0.0.0.2 1.1.2.0 -1 55
r 0.111118 0 1 encap 230 ------- 0 0.0.0.2 1.1.2.0 -1 59
+ 0.111118 1 5 encap 230 ------- 0 0.0.0.2 1.1.2.0 -1 59
- 0.111118 1 5 encap 230 ------- 0 0.0.0.2 1.1.2.0 -1 59
r 0.111708 8 9 encap 230 ------- 0 0.0.0.2 1.1.2.0 -1 53
r 0.112104 5 6 encap 230 ------- 0 0.0.0.2 1.1.2.0 -1 57
+ 0.112104 6 7 encap 230 ------- 0 0.0.0.2 1.1.2.0 -1 57
- 0.112104 6 7 encap 230 ------- 0 0.0.0.2 1.1.2.0 -1 57
+ 0.1125 0 1 encap 230 ------- 0 0.0.0.2 1.1.2.0 -1 61
- 0.1125 0 1 encap 230 ------- 0 0.0.0.2 1.1.2.0 -1 61
r 0.11309 7 8 encap 230 ------- 0 0.0.0.2 1.1.2.0 -1 55
+ 0.11309 8 9 encap 230 ------- 0 0.0.0.2 1.1.2.0 -1 55
- 0.11309 8 9 encap 230 ------- 0 0.0.0.2 1.1.2.0 -1 55
r 0.113486 1 5 encap 230 ------- 0 0.0.0.2 1.1.2.0 -1 59
+ 0.113486 5 6 encap 230 ------- 0 0.0.0.2 1.1.2.0 -1 59
- 0.113486 5 6 encap 230 ------- 0 0.0.0.2 1.1.2.0 -1 59
r 0.114472 6 7 encap 230 ------- 0 0.0.0.2 1.1.2.0 -1 57
+ 0.114472 7 8 encap 230 ------- 0 0.0.0.2 1.1.2.0 -1 57
- 0.114472 7 8 encap 230 ------- 0 0.0.0.2 1.1.2.0 -1 57
r 0.114868 0 1 encap 230 ------- 0 0.0.0.2 1.1.2.0 -1 61
+ 0.114868 1 5 encap 230 ------- 0 0.0.0.2 1.1.2.0 -1 61
- 0.114868 1 5 encap 230 ------- 0 0.0.0.2 1.1.2.0 -1 61