+ 0.1 4 1 encap 230 ------- 0 4.3 2.0 -1 1
- 0.1 4 1 encap 230 ------- 0 4.3 2.0 -1 1
v 0.1 eval {set sim_annotation {0.10000000000000001 1 join-group 2147483648}}
v 0.1 eval {set sim_annotation {0.10000000000000001 0 join-group 2147483648}}
v 0.1 eval {set sim_annotation {0.10000000000000001 3 join-group 2147483648}}
v 0.1 eval {set sim_annotation {0.10000000000000001 2 join-group 2147483648}}
v 0.1 eval {set sim_annotation {0.10000000000000001 4 join-group 2147483648}}
v 0.1 eval {set sim_annotation {0.10000000000000001 5 join-group 2147483648}}
+ 0.10375 4 1 encap 230 ------- 0 4.3 2.0 -1 3
- 0.10375 4 1 encap 230 ------- 0 4.3 2.0 -1 3
+ 0.1075 4 1 encap 230 ------- 0 4.3 2.0 -1 5
- 0.1075 4 1 encap 230 ------- 0 4.3 2.0 -1 5
r 0.111227 4 1 encap 230 ------- 0 4.3 2.0 -1 1
+ 0.111227 1 0 encap 230 ------- 0 4.3 2.0 -1 1
- 0.111227 1 0 encap 230 ------- 0 4.3 2.0 -1 1
+ 0.11125 4 1 encap 230 ------- 0 4.3 2.0 -1 7
- 0.11125 4 1 encap 230 ------- 0 4.3 2.0 -1 7
r 0.114977 4 1 encap 230 ------- 0 4.3 2.0 -1 3
+ 0.114977 1 0 encap 230 ------- 0 4.3 2.0 -1 3
- 0.114977 1 0 encap 230 ------- 0 4.3 2.0 -1 3
+ 0.115 4 1 encap 230 ------- 0 4.3 2.0 -1 9
- 0.115 4 1 encap 230 ------- 0 4.3 2.0 -1 9
r 0.118727 4 1 encap 230 ------- 0 4.3 2.0 -1 5
+ 0.118727 1 0 encap 230 ------- 0 4.3 2.0 -1 5
- 0.118727 1 0 encap 230 ------- 0 4.3 2.0 -1 5
+ 0.11875 4 1 encap 230 ------- 0 4.3 2.0 -1 11
- 0.11875 4 1 encap 230 ------- 0 4.3 2.0 -1 11
r 0.122453 1 0 encap 230 ------- 0 4.3 2.0 -1 1
+ 0.122453 0 2 encap 230 ------- 0 4.3 2.0 -1 1
- 0.122453 0 2 encap 230 ------- 0 4.3 2.0 -1 1
r 0.122477 4 1 encap 230 ------- 0 4.3 2.0 -1 7
+ 0.122477 1 0 encap 230 ------- 0 4.3 2.0 -1 7
- 0.122477 1 0 encap 230 ------- 0 4.3 2.0 -1 7
+ 0.1225 4 1 encap 230 ------- 0 4.3 2.0 -1 13
- 0.1225 4 1 encap 230 ------- 0 4.3 2.0 -1 13
r 0.126203 1 0 encap 230 ------- 0 4.3 2.0 -1 3
+ 0.126203 0 2 encap 230 ------- 0 4.3 2.0 -1 3
- 0.126203 0 2 encap 230 ------- 0 4.3 2.0 -1 3
r 0.126227 4 1 encap 230 ------- 0 4.3 2.0 -1 9
+ 0.126227 1 0 encap 230 ------- 0 4.3 2.0 -1 9
- 0.126227 1 0 encap 230 ------- 0 4.3 2.0 -1 9
+ 0.12625 4 1 encap 230 ------- 0 4.3 2.0 -1 15
- 0.12625 4 1 encap 230 ------- 0 4.3 2.0 -1 15
r 0.129953 1 0 encap 230 ------- 0 4.3 2.0 -1 5
+ 0.129953 0 2 encap 230 ------- 0 4.3 2.0 -1 5
- 0.129953 0 2 encap 230 ------- 0 4.3 2.0 -1 5
r 0.129977 4 1 encap 230 ------- 0 4.3 2.0 -1 11
+ 0.129977 1 0 encap 230 ------- 0 4.3 2.0 -1 11
- 0.129977 1 0 encap 230 ------- 0 4.3 2.0 -1 11
+ 0.13 4 1 encap 230 ------- 0 4.3 2.0 -1 17
- 0.13 4 1 encap 230 ------- 0 4.3 2.0 -1 17
r 0.13368 0 2 encap 230 ------- 0 4.3 2.0 -1 1
r 0.133703 1 0 encap 230 ------- 0 4.3 2.0 -1 7
+ 0.133703 0 2 encap 230 ------- 0 4.3 2.0 -1 7
- 0.133703 0 2 encap 230 ------- 0 4.3 2.0 -1 7
r 0.133727 4 1 encap 230 ------- 0 4.3 2.0 -1 13
+ 0.133727 1 0 encap 230 ------- 0 4.3 2.0 -1 13
- 0.133727 1 0 encap 230 ------- 0 4.3 2.0 -1 13
+ 0.13375 4 1 encap 230 ------- 0 4.3 2.0 -1 19
- 0.13375 4 1 encap 230 ------- 0 4.3 2.0 -1 19
r 0.13743 0 2 encap 230 ------- 0 4.3 2.0 -1 3
r 0.137453 1 0 encap 230 ------- 0 4.3 2.0 -1 9
+ 0.137453 0 2 encap 230 ------- 0 4.3 2.0 -1 9
- 0.137453 0 2 encap 230 ------- 0 4.3 2.0 -1 9
r 0.137477 4 1 encap 230 ------- 0 4.3 2.0 -1 15
+ 0.137477 1 0 encap 230 ------- 0 4.3 2.0 -1 15
- 0.137477 1 0 encap 230 ------- 0 4.3 2.0 -1 15
+ 0.1375 4 1 encap 230 ------- 0 4.3 2.0 -1 21
- 0.1375 4 1 encap 230 ------- 0 4.3 2.0 -1 21
r 0.14118 0 2 encap 230 ------- 0 4.3 2.0 -1 5
r 0.141203 1 0 encap 230 ------- 0 4.3 2.0 -1 11
+ 0.141203 0 2 encap 230 ------- 0 4.3 2.0 -1 11
- 0.141203 0 2 encap 230 ------- 0 4.3 2.0 -1 11
r 0.141227 4 1 encap 230 ------- 0 4.3 2.0 -1 17
+ 0.141227 1 0 encap 230 ------- 0 4.3 2.0 -1 17
- 0.141227 1 0 encap 230 ------- 0 4.3 2.0 -1 17
+ 0.14125 4 1 encap 230 ------- 0 4.3 2.0 -1 23
- 0.14125 4 1 encap 230 ------- 0 4.3 2.0 -1 23
r 0.14493 0 2 encap 230 ------- 0 4.3 2.0 -1 7
r 0.144953 1 0 encap 230 ------- 0 4.3 2.0 -1 13
+ 0.144953 0 2 encap 230 ------- 0 4.3 2.0 -1 13
- 0.144953 0 2 encap 230 ------- 0 4.3 2.0 -1 13
r 0.144977 4 1 encap 230 ------- 0 4.3 2.0 -1 19
+ 0.144977 1 0 encap 230 ------- 0 4.3 2.0 -1 19
- 0.144977 1 0 encap 230 ------- 0 4.3 2.0 -1 19
+ 0.145 4 1 encap 230 ------- 0 4.3 2.0 -1 25
- 0.145 4 1 encap 230 ------- 0 4.3 2.0 -1 25
r 0.14868 0 2 encap 230 ------- 0 4.3 2.0 -1 9
r 0.148703 1 0 encap 230 ------- 0 4.3 2.0 -1 15
+ 0.148703 0 2 encap 230 ------- 0 4.3 2.0 -1 15
- 0.148703 0 2 encap 230 ------- 0 4.3 2.0 -1 15
r 0.148727 4 1 encap 230 ------- 0 4.3 2.0 -1 21
+ 0.148727 1 0 encap 230 ------- 0 4.3 2.0 -1 21
- 0.148727 1 0 encap 230 ------- 0 4.3 2.0 -1 21
+ 0.14875 4 1 encap 230 ------- 0 4.3 2.0 -1 27
- 0.14875 4 1 encap 230 ------- 0 4.3 2.0 -1 27
r 0.15243 0 2 encap 230 ------- 0 4.3 2.0 -1 11
r 0.152453 1 0 encap 230 ------- 0 4.3 2.0 -1 17
+ 0.152453 0 2 encap 230 ------- 0 4.3 2.0 -1 17
- 0.152453 0 2 encap 230 ------- 0 4.3 2.0 -1 17
r 0.152477 4 1 encap 230 ------- 0 4.3 2.0 -1 23
+ 0.152477 1 0 encap 230 ------- 0 4.3 2.0 -1 23
- 0.152477 1 0 encap 230 ------- 0 4.3 2.0 -1 23
+ 0.1525 4 1 encap 230 ------- 0 4.3 2.0 -1 29
- 0.1525 4 1 encap 230 ------- 0 4.3 2.0 -1 29
r 0.15618 0 2 encap 230 ------- 0 4.3 2.0 -1 13
r 0.156203 1 0 encap 230 ------- 0 4.3 2.0 -1 19
+ 0.156203 0 2 encap 230 ------- 0 4.3 2.0 -1 19
- 0.156203 0 2 encap 230 ------- 0 4.3 2.0 -1 19
r 0.156227 4 1 encap 230 ------- 0 4.3 2.0 -1 25
+ 0.156227 1 0 encap 230 ------- 0 4.3 2.0 -1 25
- 0.156227 1 0 encap 230 ------- 0 4.3 2.0 -1 25
+ 0.15625 4 1 encap 230 ------- 0 4.3 2.0 -1 31
- 0.15625 4 1 encap 230 ------- 0 4.3 2.0 -1 31
r 0.15993 0 2 encap 230 ------- 0 4.3 2.0 -1 15
r 0.159953 1 0 encap 230 ------- 0 4.3 2.0 -1 21
+ 0.159953 0 2 encap 230 ------- 0 4.3 2.0 -1 21
- 0.159953 0 2 encap 230 ------- 0 4.3 2.0 -1 21
r 0.159977 4 1 encap 230 ------- 0 4.3 2.0 -1 27
+ 0.159977 1 0 encap 230 ------- 0 4.3 2.0 -1 27
- 0.159977 1 0 encap 230 ------- 0 4.3 2.0 -1 27
+ 0.16 4 1 encap 230 ------- 0 4.3 2.0 -1 33
- 0.16 4 1 encap 230 ------- 0 4.3 2.0 -1 33
r 0.16368 0 2 encap 230 ------- 0 4.3 2.0 -1 17
r 0.163703 1 0 encap 230 ------- 0 4.3 2.0 -1 23
+ 0.163703 0 2 encap 230 ------- 0 4.3 2.0 -1 23
- 0.163703 0 2 encap 230 ------- 0 4.3 2.0 -1 23
r 0.163727 4 1 encap 230 ------- 0 4.3 2.0 -1 29
+ 0.163727 1 0 encap 230 ------- 0 4.3 2.0 -1 29
- 0.163727 1 0 encap 230 ------- 0 4.3 2.0 -1 29
+ 0.16375 4 1 encap 230 ------- 0 4.3 2.0 -1 35
- 0.16375 4 1 encap 230 ------- 0 4.3 2.0 -1 35
r 0.16743 0 2 encap 230 ------- 0 4.3 2.0 -1 19
r 0.167453 1 0 encap 230 ------- 0 4.3 2.0 -1 25
+ 0.167453 0 2 encap 230 ------- 0 4.3 2.0 -1 25
- 0.167453 0 2 encap 230 ------- 0 4.3 2.0 -1 25
r 0.167477 4 1 encap 230 ------- 0 4.3 2.0 -1 31
+ 0.167477 1 0 encap 230 ------- 0 4.3 2.0 -1 31
- 0.167477 1 0 encap 230 ------- 0 4.3 2.0 -1 31
+ 0.1675 4 1 encap 230 ------- 0 4.3 2.0 -1 37
- 0.1675 4 1 encap 230 ------- 0 4.3 2.0 -1 37
r 0.17118 0 2 encap 230 ------- 0 4.3 2.0 -1 21
r 0.171203 1 0 encap 230 ------- 0 4.3 2.0 -1 27
+ 0.171203 0 2 encap 230 ------- 0 4.3 2.0 -1 27
- 0.171203 0 2 encap 230 ------- 0 4.3 2.0 -1 27
r 0.171227 4 1 encap 230 ------- 0 4.3 2.0 -1 33
+ 0.171227 1 0 encap 230 ------- 0 4.3 2.0 -1 33
- 0.171227 1 0 encap 230 ------- 0 4.3 2.0 -1 33
+ 0.17125 4 1 encap 230 ------- 0 4.3 2.0 -1 39
- 0.17125 4 1 encap 230 ------- 0 4.3 2.0 -1 39
r 0.17493 0 2 encap 230 ------- 0 4.3 2.0 -1 23
r 0.174953 1 0 encap 230 ------- 0 4.3 2.0 -1 29
+ 0.174953 0 2 encap 230 ------- 0 4.3 2.0 -1 29
- 0.174953 0 2 encap 230 ------- 0 4.3 2.0 -1 29
r 0.174977 4 1 encap 230 ------- 0 4.3 2.0 -1 35
+ 0.174977 1 0 encap 230 ------- 0 4.3 2.0 -1 35
- 0.174977 1 0 encap 230 ------- 0 4.3 2.0 -1 35
+ 0.175 4 1 encap 230 ------- 0 4.3 2.0 -1 41
- 0.175 4 1 encap 230 ------- 0 4.3 2.0 -1 41
r 0.17868 0 2 encap 230 ------- 0 4.3 2.0 -1 25
r 0.178703 1 0 encap 230 ------- 0 4.3 2.0 -1 31
+ 0.178703 0 2 encap 230 ------- 0 4.3 2.0 -1 31
- 0.178703 0 2 encap 230 ------- 0 4.3 2.0 -1 31
r 0.178727 4 1 encap 230 ------- 0 4.3 2.0 -1 37
+ 0.178727 1 0 encap 230 ------- 0 4.3 2.0 -1 37
- 0.178727 1 0 encap 230 ------- 0 4.3 2.0 -1 37
+ 0.17875 4 1 encap 230 ------- 0 4.3 2.0 -1 43
- 0.17875 4 1 encap 230 ------- 0 4.3 2.0 -1 43
r 0.18243 0 2 encap 230 ------- 0 4.3 2.0 -1 27
r 0.182453 1 0 encap 230 ------- 0 4.3 2.0 -1 33
+ 0.182453 0 2 encap 230 ------- 0 4.3 2.0 -1 33
- 0.182453 0 2 encap 230 ------- 0 4.3 2.0 -1 33
r 0.182477 4 1 encap 230 ------- 0 4.3 2.0 -1 39
+ 0.182477 1 0 encap 230 ------- 0 4.3 2.0 -1 39
- 0.182477 1 0 encap 230 ------- 0 4.3 2.0 -1 39
+ 0.1825 4 1 encap 230 ------- 0 4.3 2.0 -1 45
- 0.1825 4 1 encap 230 ------- 0 4.3 2.0 -1 45
r 0.18618 0 2 encap 230 ------- 0 4.3 2.0 -1 29
r 0.186203 1 0 encap 230 ------- 0 4.3 2.0 -1 35
+ 0.186203 0 2 encap 230 ------- 0 4.3 2.0 -1 35
- 0.186203 0 2 encap 230 ------- 0 4.3 2.0 -1 35
r 0.186227 4 1 encap 230 ------- 0 4.3 2.0 -1 41
+ 0.186227 1 0 encap 230 ------- 0 4.3 2.0 -1 41
- 0.186227 1 0 encap 230 ------- 0 4.3 2.0 -1 41
+ 0.18625 4 1 encap 230 ------- 0 4.3 2.0 -1 47
- 0.18625 4 1 encap 230 ------- 0 4.3 2.0 -1 47
r 0.18993 0 2 encap 230 ------- 0 4.3 2.0 -1 31
r 0.189953 1 0 encap 230 ------- 0 4.3 2.0 -1 37
+ 0.189953 0 2 encap 230 ------- 0 4.3 2.0 -1 37
- 0.189953 0 2 encap 230 ------- 0 4.3 2.0 -1 37
r 0.189977 4 1 encap 230 ------- 0 4.3 2.0 -1 43
+ 0.189977 1 0 encap 230 ------- 0 4.3 2.0 -1 43
- 0.189977 1 0 encap 230 ------- 0 4.3 2.0 -1 43
+ 0.19 4 1 encap 230 ------- 0 4.3 2.0 -1 49
- 0.19 4 1 encap 230 ------- 0 4.3 2.0 -1 49
r 0.19368 0 2 encap 230 ------- 0 4.3 2.0 -1 33
r 0.193703 1 0 encap 230 ------- 0 4.3 2.0 -1 39
+ 0.193703 0 2 encap 230 ------- 0 4.3 2.0 -1 39
- 0.193703 0 2 encap 230 ------- 0 4.3 2.0 -1 39
r 0.193727 4 1 encap 230 ------- 0 4.3 2.0 -1 45
+ 0.193727 1 0 encap 230 ------- 0 4.3 2.0 -1 45
- 0.193727 1 0 encap 230 ------- 0 4.3 2.0 -1 45
+ 0.19375 4 1 encap 230 ------- 0 4.3 2.0 -1 51
- 0.19375 4 1 encap 230 ------- 0 4.3 2.0 -1 51
r 0.19743 0 2 encap 230 ------- 0 4.3 2.0 -1 35
r 0.197453 1 0 encap 230 ------- 0 4.3 2.0 -1 41
+ 0.197453 0 2 encap 230 ------- 0 4.3 2.0 -1 41
- 0.197453 0 2 encap 230 ------- 0 4.3 2.0 -1 41
r 0.197477 4 1 encap 230 ------- 0 4.3 2.0 -1 47
+ 0.197477 1 0 encap 230 ------- 0 4.3 2.0 -1 47
- 0.197477 1 0 encap 230 ------- 0 4.3 2.0 -1 47
+ 0.1975 4 1 encap 230 ------- 0 4.3 2.0 -1 53
- 0.1975 4 1 encap 230 ------- 0 4.3 2.0 -1 53
r 0.20118 0 2 encap 230 ------- 0 4.3 2.0 -1 37
r 0.201203 1 0 encap 230 ------- 0 4.3 2.0 -1 43
+ 0.201203 0 2 encap 230 ------- 0 4.3 2.0 -1 43
- 0.201203 0 2 encap 230 ------- 0 4.3 2.0 -1 43
r 0.201227 4 1 encap 230 ------- 0 4.3 2.0 -1 49
+ 0.201227 1 0 encap 230 ------- 0 4.3 2.0 -1 49
- 0.201227 1 0 encap 230 ------- 0 4.3 2.0 -1 49
+ 0.20125 4 1 encap 230 ------- 0 4.3 2.0 -1 55
- 0.20125 4 1 encap 230 ------- 0 4.3 2.0 -1 55
r 0.20493 0 2 encap 230 ------- 0 4.3 2.0 -1 39
r 0.204953 1 0 encap 230 ------- 0 4.3 2.0 -1 45
+ 0.204953 0 2 encap 230 ------- 0 4.3 2.0 -1 45
- 0.204953 0 2 encap 230 ------- 0 4.3 2.0 -1 45
r 0.204977 4 1 encap 230 ------- 0 4.3 2.0 -1 51
+ 0.204977 1 0 encap 230 ------- 0 4.3 2.0 -1 51
- 0.204977 1 0 encap 230 ------- 0 4.3 2.0 -1 51
+ 0.205 4 1 encap 230 ------- 0 4.3 2.0 -1 57
- 0.205 4 1 encap 230 ------- 0 4.3 2.0 -1 57
r 0.20868 0 2 encap 230 ------- 0 4.3 2.0 -1 41
r 0.208703 1 0 encap 230 ------- 0 4.3 2.0 -1 47
+ 0.208703 0 2 encap 230 ------- 0 4.3 2.0 -1 47
- 0.208703 0 2 encap 230 ------- 0 4.3 2.0 -1 47
r 0.208727 4 1 encap 230 ------- 0 4.3 2.0 -1 53
+ 0.208727 1 0 encap 230 ------- 0 4.3 2.0 -1 53
- 0.208727 1 0 encap 230 ------- 0 4.3 2.0 -1 53
+ 0.20875 4 1 encap 230 ------- 0 4.3 2.0 -1 59
- 0.20875 4 1 encap 230 ------- 0 4.3 2.0 -1 59
r 0.21243 0 2 encap 230 ------- 0 4.3 2.0 -1 43
r 0.212453 1 0 encap 230 ------- 0 4.3 2.0 -1 49
+ 0.212453 0 2 encap 230 ------- 0 4.3 2.0 -1 49
- 0.212453 0 2 encap 230 ------- 0 4.3 2.0 -1 49
r 0.212477 4 1 encap 230 ------- 0 4.3 2.0 -1 55
+ 0.212477 1 0 encap 230 ------- 0 4.3 2.0 -1 55
- 0.212477 1 0 encap 230 ------- 0 4.3 2.0 -1 55
+ 0.2125 4 1 encap 230 ------- 0 4.3 2.0 -1 61
- 0.2125 4 1 encap 230 ------- 0 4.3 2.0 -1 61
r 0.21618 0 2 encap 230 ------- 0 4.3 2.0 -1 45
r 0.216203 1 0 encap 230 ------- 0 4.3 2.0 -1 51
+ 0.216203 0 2 encap 230 ------- 0 4.3 2.0 -1 51
- 0.216203 0 2 encap 230 ------- 0 4.3 2.0 -1 51
r 0.216227 4 1 encap 230 ------- 0 4.3 2.0 -1 57
+ 0.216227 1 0 encap 230 ------- 0 4.3 2.0 -1 57
- 0.216227 1 0 encap 230 ------- 0 4.3 2.0 -1 57
+ 0.21625 4 1 encap 230 ------- 0 4.3 2.0 -1 63
- 0.21625 4 1 encap 230 ------- 0 4.3 2.0 -1 63
r 0.21993 0 2 encap 230 ------- 0 4.3 2.0 -1 47
r 0.219953 1 0 encap 230 ------- 0 4.3 2.0 -1 53
+ 0.219953 0 2 encap 230 ------- 0 4.3 2.0 -1 53
- 0.219953 0 2 encap 230 ------- 0 4.3 2.0 -1 53
r 0.219977 4 1 encap 230 ------- 0 4.3 2.0 -1 59
+ 0.219977 1 0 encap 230 ------- 0 4.3 2.0 -1 59
- 0.219977 1 0 encap 230 ------- 0 4.3 2.0 -1 59
+ 0.22 4 1 encap 230 ------- 0 4.3 2.0 -1 65
- 0.22 4 1 encap 230 ------- 0 4.3 2.0 -1 65
r 0.22368 0 2 encap 230 ------- 0 4.3 2.0 -1 49
r 0.223703 1 0 encap 230 ------- 0 4.3 2.0 -1 55
+ 0.223703 0 2 encap 230 ------- 0 4.3 2.0 -1 55
- 0.223703 0 2 encap 230 ------- 0 4.3 2.0 -1 55
r 0.223727 4 1 encap 230 ------- 0 4.3 2.0 -1 61
+ 0.223727 1 0 encap 230 ------- 0 4.3 2.0 -1 61
- 0.223727 1 0 encap 230 ------- 0 4.3 2.0 -1 61
+ 0.22375 4 1 encap 230 ------- 0 4.3 2.0 -1 67
- 0.22375 4 1 encap 230 ------- 0 4.3 2.0 -1 67
r 0.22743 0 2 encap 230 ------- 0 4.3 2.0 -1 51
r 0.227453 1 0 encap 230 ------- 0 4.3 2.0 -1 57
+ 0.227453 0 2 encap 230 ------- 0 4.3 2.0 -1 57
- 0.227453 0 2 encap 230 ------- 0 4.3 2.0 -1 57
r 0.227477 4 1 encap 230 ------- 0 4.3 2.0 -1 63
+ 0.227477 1 0 encap 230 ------- 0 4.3 2.0 -1 63
- 0.227477 1 0 encap 230 ------- 0 4.3 2.0 -1 63
+ 0.2275 4 1 encap 230 ------- 0 4.3 2.0 -1 69
- 0.2275 4 1 encap 230 ------- 0 4.3 2.0 -1 69
r 0.23118 0 2 encap 230 ------- 0 4.3 2.0 -1 53
r 0.231203 1 0 encap 230 ------- 0 4.3 2.0 -1 59
+ 0.231203 0 2 encap 230 ------- 0 4.3 2.0 -1 59
- 0.231203 0 2 encap 230 ------- 0 4.3 2.0 -1 59
r 0.231227 4 1 encap 230 ------- 0 4.3 2.0 -1 65
+ 0.231227 1 0 encap 230 ------- 0 4.3 2.0 -1 65
- 0.231227 1 0 encap 230 ------- 0 4.3 2.0 -1 65
+ 0.23125 4 1 encap 230 ------- 0 4.3 2.0 -1 71
- 0.23125 4 1 encap 230 ------- 0 4.3 2.0 -1 71
r 0.23493 0 2 encap 230 ------- 0 4.3 2.0 -1 55
r 0.234953 1 0 encap 230 ------- 0 4.3 2.0 -1 61
+ 0.234953 0 2 encap 230 ------- 0 4.3 2.0 -1 61
- 0.234953 0 2 encap 230 ------- 0 4.3 2.0 -1 61
r 0.234977 4 1 encap 230 ------- 0 4.3 2.0 -1 67
+ 0.234977 1 0 encap 230 ------- 0 4.3 2.0 -1 67
- 0.234977 1 0 encap 230 ------- 0 4.3 2.0 -1 67
+ 0.235 4 1 encap 230 ------- 0 4.3 2.0 -1 73
- 0.235 4 1 encap 230 ------- 0 4.3 2.0 -1 73
r 0.23868 0 2 encap 230 ------- 0 4.3 2.0 -1 57
r 0.238703 1 0 encap 230 ------- 0 4.3 2.0 -1 63
+ 0.238703 0 2 encap 230 ------- 0 4.3 2.0 -1 63
- 0.238703 0 2 encap 230 ------- 0 4.3 2.0 -1 63
r 0.238727 4 1 encap 230 ------- 0 4.3 2.0 -1 69
+ 0.238727 1 0 encap 230 ------- 0 4.3 2.0 -1 69
- 0.238727 1 0 encap 230 ------- 0 4.3 2.0 -1 69
+ 0.23875 4 1 encap 230 ------- 0 4.3 2.0 -1 75
- 0.23875 4 1 encap 230 ------- 0 4.3 2.0 -1 75
r 0.24243 0 2 encap 230 ------- 0 4.3 2.0 -1 59
r 0.242453 1 0 encap 230 ------- 0 4.3 2.0 -1 65
+ 0.242453 0 2 encap 230 ------- 0 4.3 2.0 -1 65
- 0.242453 0 2 encap 230 ------- 0 4.3 2.0 -1 65
r 0.242477 4 1 encap 230 ------- 0 4.3 2.0 -1 71
+ 0.242477 1 0 encap 230 ------- 0 4.3 2.0 -1 71
- 0.242477 1 0 encap 230 ------- 0 4.3 2.0 -1 71
+ 0.2425 4 1 encap 230 ------- 0 4.3 2.0 -1 77
- 0.2425 4 1 encap 230 ------- 0 4.3 2.0 -1 77
r 0.24618 0 2 encap 230 ------- 0 4.3 2.0 -1 61
r 0.246203 1 0 encap 230 ------- 0 4.3 2.0 -1 67
+ 0.246203 0 2 encap 230 ------- 0 4.3 2.0 -1 67
- 0.246203 0 2 encap 230 ------- 0 4.3 2.0 -1 67
r 0.246227 4 1 encap 230 ------- 0 4.3 2.0 -1 73
+ 0.246227 1 0 encap 230 ------- 0 4.3 2.0 -1 73
- 0.246227 1 0 encap 230 ------- 0 4.3 2.0 -1 73
+ 0.24625 4 1 encap 230 ------- 0 4.3 2.0 -1 79
- 0.24625 4 1 encap 230 ------- 0 4.3 2.0 -1 79
r 0.24993 0 2 encap 230 ------- 0 4.3 2.0 -1 63
r 0.249953 1 0 encap 230 ------- 0 4.3 2.0 -1 69
+ 0.249953 0 2 encap 230 ------- 0 4.3 2.0 -1 69
- 0.249953 0 2 encap 230 ------- 0 4.3 2.0 -1 69
r 0.249977 4 1 encap 230 ------- 0 4.3 2.0 -1 75
+ 0.249977 1 0 encap 230 ------- 0 4.3 2.0 -1 75
- 0.249977 1 0 encap 230 ------- 0 4.3 2.0 -1 75
+ 0.25 4 1 encap 230 ------- 0 4.3 2.0 -1 81
- 0.25 4 1 encap 230 ------- 0 4.3 2.0 -1 81
r 0.25368 0 2 encap 230 ------- 0 4.3 2.0 -1 65
r 0.253703 1 0 encap 230 ------- 0 4.3 2.0 -1 71
+ 0.253703 0 2 encap 230 ------- 0 4.3 2.0 -1 71
- 0.253703 0 2 encap 230 ------- 0 4.3 2.0 -1 71
r 0.253727 4 1 encap 230 ------- 0 4.3 2.0 -1 77
+ 0.253727 1 0 encap 230 ------- 0 4.3 2.0 -1 77
- 0.253727 1 0 encap 230 ------- 0 4.3 2.0 -1 77
+ 0.25375 4 1 encap 230 ------- 0 4.3 2.0 -1 83
- 0.25375 4 1 encap 230 ------- 0 4.3 2.0 -1 83
r 0.25743 0 2 encap 230 ------- 0 4.3 2.0 -1 67
r 0.257453 1 0 encap 230 ------- 0 4.3 2.0 -1 73
+ 0.257453 0 2 encap 230 ------- 0 4.3 2.0 -1 73
- 0.257453 0 2 encap 230 ------- 0 4.3 2.0 -1 73
r 0.257477 4 1 encap 230 ------- 0 4.3 2.0 -1 79
+ 0.257477 1 0 encap 230 ------- 0 4.3 2.0 -1 79
- 0.257477 1 0 encap 230 ------- 0 4.3 2.0 -1 79
+ 0.2575 4 1 encap 230 ------- 0 4.3 2.0 -1 85
- 0.2575 4 1 encap 230 ------- 0 4.3 2.0 -1 85
r 0.26118 0 2 encap 230 ------- 0 4.3 2.0 -1 69
r 0.261203 1 0 encap 230 ------- 0 4.3 2.0 -1 75
+ 0.261203 0 2 encap 230 ------- 0 4.3 2.0 -1 75
- 0.261203 0 2 encap 230 ------- 0 4.3 2.0 -1 75
r 0.261227 4 1 encap 230 ------- 0 4.3 2.0 -1 81
+ 0.261227 1 0 encap 230 ------- 0 4.3 2.0 -1 81
- 0.261227 1 0 encap 230 ------- 0 4.3 2.0 -1 81
+ 0.26125 4 1 encap 230 ------- 0 4.3 2.0 -1 87
- 0.26125 4 1 encap 230 ------- 0 4.3 2.0 -1 87
r 0.26493 0 2 encap 230 ------- 0 4.3 2.0 -1 71
r 0.264953 1 0 encap 230 ------- 0 4.3 2.0 -1 77
+ 0.264953 0 2 encap 230 ------- 0 4.3 2.0 -1 77
- 0.264953 0 2 encap 230 ------- 0 4.3 2.0 -1 77
r 0.264977 4 1 encap 230 ------- 0 4.3 2.0 -1 83
+ 0.264977 1 0 encap 230 ------- 0 4.3 2.0 -1 83
- 0.264977 1 0 encap 230 ------- 0 4.3 2.0 -1 83
+ 0.265 4 1 encap 230 ------- 0 4.3 2.0 -1 89
- 0.265 4 1 encap 230 ------- 0 4.3 2.0 -1 89
r 0.26868 0 2 encap 230 ------- 0 4.3 2.0 -1 73
r 0.268703 1 0 encap 230 ------- 0 4.3 2.0 -1 79
+ 0.268703 0 2 encap 230 ------- 0 4.3 2.0 -1 79
- 0.268703 0 2 encap 230 ------- 0 4.3 2.0 -1 79
r 0.268727 4 1 encap 230 ------- 0 4.3 2.0 -1 85
+ 0.268727 1 0 encap 230 ------- 0 4.3 2.0 -1 85
- 0.268727 1 0 encap 230 ------- 0 4.3 2.0 -1 85
+ 0.26875 4 1 encap 230 ------- 0 4.3 2.0 -1 91
- 0.26875 4 1 encap 230 ------- 0 4.3 2.0 -1 91
r 0.27243 0 2 encap 230 ------- 0 4.3 2.0 -1 75
r 0.272453 1 0 encap 230 ------- 0 4.3 2.0 -1 81
+ 0.272453 0 2 encap 230 ------- 0 4.3 2.0 -1 81
- 0.272453 0 2 encap 230 ------- 0 4.3 2.0 -1 81
r 0.272477 4 1 encap 230 ------- 0 4.3 2.0 -1 87
+ 0.272477 1 0 encap 230 ------- 0 4.3 2.0 -1 87
- 0.272477 1 0 encap 230 ------- 0 4.3 2.0 -1 87
+ 0.2725 4 1 encap 230 ------- 0 4.3 2.0 -1 93
- 0.2725 4 1 encap 230 ------- 0 4.3 2.0 -1 93
r 0.27618 0 2 encap 230 ------- 0 4.3 2.0 -1 77
r 0.276203 1 0 encap 230 ------- 0 4.3 2.0 -1 83
+ 0.276203 0 2 encap 230 ------- 0 4.3 2.0 -1 83
- 0.276203 0 2 encap 230 ------- 0 4.3 2.0 -1 83
r 0.276227 4 1 encap 230 ------- 0 4.3 2.0 -1 89
+ 0.276227 1 0 encap 230 ------- 0 4.3 2.0 -1 89
- 0.276227 1 0 encap 230 ------- 0 4.3 2.0 -1 89
+ 0.27625 4 1 encap 230 ------- 0 4.3 2.0 -1 95
- 0.27625 4 1 encap 230 ------- 0 4.3 2.0 -1 95
r 0.27993 0 2 encap 230 ------- 0 4.3 2.0 -1 79
r 0.279953 1 0 encap 230 ------- 0 4.3 2.0 -1 85
+ 0.279953 0 2 encap 230 ------- 0 4.3 2.0 -1 85
- 0.279953 0 2 encap 230 ------- 0 4.3 2.0 -1 85
r 0.279977 4 1 encap 230 ------- 0 4.3 2.0 -1 91
+ 0.279977 1 0 encap 230 ------- 0 4.3 2.0 -1 91
- 0.279977 1 0 encap 230 ------- 0 4.3 2.0 -1 91
+ 0.28 4 1 encap 230 ------- 0 4.3 2.0 -1 97
- 0.28 4 1 encap 230 ------- 0 4.3 2.0 -1 97
r 0.28368 0 2 encap 230 ------- 0 4.3 2.0 -1 81
r 0.283703 1 0 encap 230 ------- 0 4.3 2.0 -1 87
+ 0.283703 0 2 encap 230 ------- 0 4.3 2.0 -1 87
- 0.283703 0 2 encap 230 ------- 0 4.3 2.0 -1 87
r 0.283727 4 1 encap 230 ------- 0 4.3 2.0 -1 93
+ 0.283727 1 0 encap 230 ------- 0 4.3 2.0 -1 93
- 0.283727 1 0 encap 230 ------- 0 4.3 2.0 -1 93
+ 0.28375 4 1 encap 230 ------- 0 4.3 2.0 -1 99
- 0.28375 4 1 encap 230 ------- 0 4.3 2.0 -1 99
r 0.28743 0 2 encap 230 ------- 0 4.3 2.0 -1 83
r 0.287453 1 0 encap 230 ------- 0 4.3 2.0 -1 89
+ 0.287453 0 2 encap 230 ------- 0 4.3 2.0 -1 89
- 0.287453 0 2 encap 230 ------- 0 4.3 2.0 -1 89
r 0.287477 4 1 encap 230 ------- 0 4.3 2.0 -1 95
+ 0.287477 1 0 encap 230 ------- 0 4.3 2.0 -1 95
- 0.287477 1 0 encap 230 ------- 0 4.3 2.0 -1 95
+ 0.2875 4 1 encap 230 ------- 0 4.3 2.0 -1 101
- 0.2875 4 1 encap 230 ------- 0 4.3 2.0 -1 101
r 0.29118 0 2 encap 230 ------- 0 4.3 2.0 -1 85
r 0.291203 1 0 encap 230 ------- 0 4.3 2.0 -1 91
+ 0.291203 0 2 encap 230 ------- 0 4.3 2.0 -1 91
- 0.291203 0 2 encap 230 ------- 0 4.3 2.0 -1 91
r 0.291227 4 1 encap 230 ------- 0 4.3 2.0 -1 97
+ 0.291227 1 0 encap 230 ------- 0 4.3 2.0 -1 97
- 0.291227 1 0 encap 230 ------- 0 4.3 2.0 -1 97
+ 0.29125 4 1 encap 230 ------- 0 4.3 2.0 -1 103
- 0.29125 4 1 encap 230 ------- 0 4.3 2.0 -1 103
r 0.29493 0 2 encap 230 ------- 0 4.3 2.0 -1 87
r 0.294953 1 0 encap 230 ------- 0 4.3 2.0 -1 93
+ 0.294953 0 2 encap 230 ------- 0 4.3 2.0 -1 93
- 0.294953 0 2 encap 230 ------- 0 4.3 2.0 -1 93
r 0.294977 4 1 encap 230 ------- 0 4.3 2.0 -1 99
+ 0.294977 1 0 encap 230 ------- 0 4.3 2.0 -1 99
- 0.294977 1 0 encap 230 ------- 0 4.3 2.0 -1 99
+ 0.295 4 1 encap 230 ------- 0 4.3 2.0 -1 105
- 0.295 4 1 encap 230 ------- 0 4.3 2.0 -1 105
r 0.29868 0 2 encap 230 ------- 0 4.3 2.0 -1 89
r 0.298703 1 0 encap 230 ------- 0 4.3 2.0 -1 95
+ 0.298703 0 2 encap 230 ------- 0 4.3 2.0 -1 95
- 0.298703 0 2 encap 230 ------- 0 4.3 2.0 -1 95
r 0.298727 4 1 encap 230 ------- 0 4.3 2.0 -1 101
+ 0.298727 1 0 encap 230 ------- 0 4.3 2.0 -1 101
- 0.298727 1 0 encap 230 ------- 0 4.3 2.0 -1 101
+ 0.29875 4 1 encap 230 ------- 0 4.3 2.0 -1 107
- 0.29875 4 1 encap 230 ------- 0 4.3 2.0 -1 107
v 0.3 eval {set sim_annotation {2147483648 switch tree type}}
r 0.30243 0 2 encap 230 ------- 0 4.3 2.0 -1 91
r 0.302453 1 0 encap 230 ------- 0 4.3 2.0 -1 97
+ 0.302453 0 2 encap 230 ------- 0 4.3 2.0 -1 97
- 0.302453 0 2 encap 230 ------- 0 4.3 2.0 -1 97
r 0.302477 4 1 encap 230 ------- 0 4.3 2.0 -1 103
+ 0.302477 1 0 encap 230 ------- 0 4.3 2.0 -1 103
- 0.302477 1 0 encap 230 ------- 0 4.3 2.0 -1 103
+ 0.3025 4 1 encap 230 ------- 0 4.3 2.0 -1 109
- 0.3025 4 1 encap 230 ------- 0 4.3 2.0 -1 109
r 0.30618 0 2 encap 230 ------- 0 4.3 2.0 -1 93
r 0.306203 1 0 encap 230 ------- 0 4.3 2.0 -1 99
+ 0.306203 0 2 encap 230 ------- 0 4.3 2.0 -1 99
- 0.306203 0 2 encap 230 ------- 0 4.3 2.0 -1 99
r 0.306227 4 1 encap 230 ------- 0 4.3 2.0 -1 105
+ 0.306227 1 0 encap 230 ------- 0 4.3 2.0 -1 105
- 0.306227 1 0 encap 230 ------- 0 4.3 2.0 -1 105
+ 0.30625 4 1 encap 230 ------- 0 4.3 2.0 -1 111
- 0.30625 4 1 encap 230 ------- 0 4.3 2.0 -1 111
r 0.30993 0 2 encap 230 ------- 0 4.3 2.0 -1 95
r 0.309953 1 0 encap 230 ------- 0 4.3 2.0 -1 101
+ 0.309953 0 2 encap 230 ------- 0 4.3 2.0 -1 101
- 0.309953 0 2 encap 230 ------- 0 4.3 2.0 -1 101
r 0.309977 4 1 encap 230 ------- 0 4.3 2.0 -1 107
+ 0.309977 1 0 encap 230 ------- 0 4.3 2.0 -1 107
- 0.309977 1 0 encap 230 ------- 0 4.3 2.0 -1 107
+ 0.31 4 1 encap 230 ------- 0 4.3 2.0 -1 113
- 0.31 4 1 encap 230 ------- 0 4.3 2.0 -1 113
r 0.31368 0 2 encap 230 ------- 0 4.3 2.0 -1 97
r 0.313703 1 0 encap 230 ------- 0 4.3 2.0 -1 103
+ 0.313703 0 2 encap 230 ------- 0 4.3 2.0 -1 103
- 0.313703 0 2 encap 230 ------- 0 4.3 2.0 -1 103
r 0.313727 4 1 encap 230 ------- 0 4.3 2.0 -1 109
+ 0.313727 1 0 encap 230 ------- 0 4.3 2.0 -1 109
- 0.313727 1 0 encap 230 ------- 0 4.3 2.0 -1 109
+ 0.31375 4 1 encap 230 ------- 0 4.3 2.0 -1 115
- 0.31375 4 1 encap 230 ------- 0 4.3 2.0 -1 115
r 0.31743 0 2 encap 230 ------- 0 4.3 2.0 -1 99
r 0.317453 1 0 encap 230 ------- 0 4.3 2.0 -1 105
+ 0.317453 0 2 encap 230 ------- 0 4.3 2.0 -1 105
- 0.317453 0 2 encap 230 ------- 0 4.3 2.0 -1 105
r 0.317477 4 1 encap 230 ------- 0 4.3 2.0 -1 111
+ 0.317477 1 0 encap 230 ------- 0 4.3 2.0 -1 111
- 0.317477 1 0 encap 230 ------- 0 4.3 2.0 -1 111
+ 0.3175 4 1 encap 230 ------- 0 4.3 2.0 -1 117
- 0.3175 4 1 encap 230 ------- 0 4.3 2.0 -1 117
r 0.32118 0 2 encap 230 ------- 0 4.3 2.0 -1 101
r 0.321203 1 0 encap 230 ------- 0 4.3 2.0 -1 107
+ 0.321203 0 2 encap 230 ------- 0 4.3 2.0 -1 107
- 0.321203 0 2 encap 230 ------- 0 4.3 2.0 -1 107
r 0.321227 4 1 encap 230 ------- 0 4.3 2.0 -1 113
+ 0.321227 1 0 encap 230 ------- 0 4.3 2.0 -1 113
- 0.321227 1 0 encap 230 ------- 0 4.3 2.0 -1 113
+ 0.32125 4 1 encap 230 ------- 0 4.3 2.0 -1 119
- 0.32125 4 1 encap 230 ------- 0 4.3 2.0 -1 119
r 0.32493 0 2 encap 230 ------- 0 4.3 2.0 -1 103
r 0.324953 1 0 encap 230 ------- 0 4.3 2.0 -1 109
+ 0.324953 0 2 encap 230 ------- 0 4.3 2.0 -1 109
- 0.324953 0 2 encap 230 ------- 0 4.3 2.0 -1 109
r 0.324977 4 1 encap 230 ------- 0 4.3 2.0 -1 115
+ 0.324977 1 0 encap 230 ------- 0 4.3 2.0 -1 115
- 0.324977 1 0 encap 230 ------- 0 4.3 2.0 -1 115
+ 0.325 4 1 encap 230 ------- 0 4.3 2.0 -1 121
- 0.325 4 1 encap 230 ------- 0 4.3 2.0 -1 121
r 0.32868 0 2 encap 230 ------- 0 4.3 2.0 -1 105
r 0.328703 1 0 encap 230 ------- 0 4.3 2.0 -1 111
+ 0.328703 0 2 encap 230 ------- 0 4.3 2.0 -1 111
- 0.328703 0 2 encap 230 ------- 0 4.3 2.0 -1 111
r 0.328727 4 1 encap 230 ------- 0 4.3 2.0 -1 117
+ 0.328727 1 0 encap 230 ------- 0 4.3 2.0 -1 117
- 0.328727 1 0 encap 230 ------- 0 4.3 2.0 -1 117
+ 0.32875 4 1 encap 230 ------- 0 4.3 2.0 -1 123
- 0.32875 4 1 encap 230 ------- 0 4.3 2.0 -1 123
r 0.33243 0 2 encap 230 ------- 0 4.3 2.0 -1 107
r 0.332453 1 0 encap 230 ------- 0 4.3 2.0 -1 113
+ 0.332453 0 2 encap 230 ------- 0 4.3 2.0 -1 113
- 0.332453 0 2 encap 230 ------- 0 4.3 2.0 -1 113
r 0.332477 4 1 encap 230 ------- 0 4.3 2.0 -1 119
+ 0.332477 1 0 encap 230 ------- 0 4.3 2.0 -1 119
- 0.332477 1 0 encap 230 ------- 0 4.3 2.0 -1 119
+ 0.3325 4 1 encap 230 ------- 0 4.3 2.0 -1 125
- 0.3325 4 1 encap 230 ------- 0 4.3 2.0 -1 125
r 0.33618 0 2 encap 230 ------- 0 4.3 2.0 -1 109
r 0.336203 1 0 encap 230 ------- 0 4.3 2.0 -1 115
+ 0.336203 0 2 encap 230 ------- 0 4.3 2.0 -1 115
- 0.336203 0 2 encap 230 ------- 0 4.3 2.0 -1 115
r 0.336227 4 1 encap 230 ------- 0 4.3 2.0 -1 121
+ 0.336227 1 0 encap 230 ------- 0 4.3 2.0 -1 121
- 0.336227 1 0 encap 230 ------- 0 4.3 2.0 -1 121
+ 0.33625 4 1 encap 230 ------- 0 4.3 2.0 -1 127
- 0.33625 4 1 encap 230 ------- 0 4.3 2.0 -1 127
r 0.33993 0 2 encap 230 ------- 0 4.3 2.0 -1 111
r 0.339953 1 0 encap 230 ------- 0 4.3 2.0 -1 117
+ 0.339953 0 2 encap 230 ------- 0 4.3 2.0 -1 117
- 0.339953 0 2 encap 230 ------- 0 4.3 2.0 -1 117
r 0.339977 4 1 encap 230 ------- 0 4.3 2.0 -1 123
+ 0.339977 1 0 encap 230 ------- 0 4.3 2.0 -1 123
- 0.339977 1 0 encap 230 ------- 0 4.3 2.0 -1 123
+ 0.34 4 1 encap 230 ------- 0 4.3 2.0 -1 129
- 0.34 4 1 encap 230 ------- 0 4.3 2.0 -1 129
r 0.34368 0 2 encap 230 ------- 0 4.3 2.0 -1 113
r 0.343703 1 0 encap 230 ------- 0 4.3 2.0 -1 119
+ 0.343703 0 2 encap 230 ------- 0 4.3 2.0 -1 119
- 0.343703 0 2 encap 230 ------- 0 4.3 2.0 -1 119
r 0.343727 4 1 encap 230 ------- 0 4.3 2.0 -1 125
+ 0.343727 1 0 encap 230 ------- 0 4.3 2.0 -1 125
- 0.343727 1 0 encap 230 ------- 0 4.3 2.0 -1 125
+ 0.34375 4 1 encap 230 ------- 0 4.3 2.0 -1 131
- 0.34375 4 1 encap 230 ------- 0 4.3 2.0 -1 131
r 0.34743 0 2 encap 230 ------- 0 4.3 2.0 -1 115
r 0.347453 1 0 encap 230 ------- 0 4.3 2.0 -1 121
+ 0.347453 0 2 encap 230 ------- 0 4.3 2.0 -1 121
- 0.347453 0 2 encap 230 ------- 0 4.3 2.0 -1 121
r 0.347477 4 1 encap 230 ------- 0 4.3 2.0 -1 127
+ 0.347477 1 0 encap 230 ------- 0 4.3 2.0 -1 127
- 0.347477 1 0 encap 230 ------- 0 4.3 2.0 -1 127
+ 0.3475 4 1 encap 230 ------- 0 4.3 2.0 -1 133
- 0.3475 4 1 encap 230 ------- 0 4.3 2.0 -1 133
r 0.35118 0 2 encap 230 ------- 0 4.3 2.0 -1 117
r 0.351203 1 0 encap 230 ------- 0 4.3 2.0 -1 123
+ 0.351203 0 2 encap 230 ------- 0 4.3 2.0 -1 123
- 0.351203 0 2 encap 230 ------- 0 4.3 2.0 -1 123
r 0.351227 4 1 encap 230 ------- 0 4.3 2.0 -1 129
+ 0.351227 1 0 encap 230 ------- 0 4.3 2.0 -1 129
- 0.351227 1 0 encap 230 ------- 0 4.3 2.0 -1 129
+ 0.35125 4 1 encap 230 ------- 0 4.3 2.0 -1 135
- 0.35125 4 1 encap 230 ------- 0 4.3 2.0 -1 135
r 0.35493 0 2 encap 230 ------- 0 4.3 2.0 -1 119
r 0.354953 1 0 encap 230 ------- 0 4.3 2.0 -1 125
+ 0.354953 0 2 encap 230 ------- 0 4.3 2.0 -1 125
- 0.354953 0 2 encap 230 ------- 0 4.3 2.0 -1 125
r 0.354977 4 1 encap 230 ------- 0 4.3 2.0 -1 131
+ 0.354977 1 0 encap 230 ------- 0 4.3 2.0 -1 131
- 0.354977 1 0 encap 230 ------- 0 4.3 2.0 -1 131
+ 0.355 4 1 encap 230 ------- 0 4.3 2.0 -1 137
- 0.355 4 1 encap 230 ------- 0 4.3 2.0 -1 137
r 0.35868 0 2 encap 230 ------- 0 4.3 2.0 -1 121
r 0.358703 1 0 encap 230 ------- 0 4.3 2.0 -1 127
+ 0.358703 0 2 encap 230 ------- 0 4.3 2.0 -1 127
- 0.358703 0 2 encap 230 ------- 0 4.3 2.0 -1 127
r 0.358727 4 1 encap 230 ------- 0 4.3 2.0 -1 133
+ 0.358727 1 0 encap 230 ------- 0 4.3 2.0 -1 133
- 0.358727 1 0 encap 230 ------- 0 4.3 2.0 -1 133
+ 0.35875 4 1 encap 230 ------- 0 4.3 2.0 -1 139
- 0.35875 4 1 encap 230 ------- 0 4.3 2.0 -1 139
r 0.36243 0 2 encap 230 ------- 0 4.3 2.0 -1 123
r 0.362453 1 0 encap 230 ------- 0 4.3 2.0 -1 129
+ 0.362453 0 2 encap 230 ------- 0 4.3 2.0 -1 129
- 0.362453 0 2 encap 230 ------- 0 4.3 2.0 -1 129
r 0.362477 4 1 encap 230 ------- 0 4.3 2.0 -1 135
+ 0.362477 1 0 encap 230 ------- 0 4.3 2.0 -1 135
- 0.362477 1 0 encap 230 ------- 0 4.3 2.0 -1 135
+ 0.3625 4 1 encap 230 ------- 0 4.3 2.0 -1 141
- 0.3625 4 1 encap 230 ------- 0 4.3 2.0 -1 141
r 0.36618 0 2 encap 230 ------- 0 4.3 2.0 -1 125
r 0.366203 1 0 encap 230 ------- 0 4.3 2.0 -1 131