v 0.3 eval {set sim_annotation {0.29999999999999999 3 join-group 2147483648}}
+ 0.35 0 2 encap 230 ------- 0 0.2 5.0 -1 1
- 0.35 0 2 encap 230 ------- 0 0.2 5.0 -1 1
+ 0.35375 0 2 encap 230 ------- 0 0.2 5.0 -1 3
- 0.35375 0 2 encap 230 ------- 0 0.2 5.0 -1 3
+ 0.3575 0 2 encap 230 ------- 0 0.2 5.0 -1 5
- 0.3575 0 2 encap 230 ------- 0 0.2 5.0 -1 5
r 0.361227 0 2 encap 230 ------- 0 0.2 5.0 -1 1
+ 0.361227 2 5 encap 230 ------- 0 0.2 5.0 -1 1
- 0.361227 2 5 encap 230 ------- 0 0.2 5.0 -1 1
+ 0.36125 0 2 encap 230 ------- 0 0.2 5.0 -1 7
- 0.36125 0 2 encap 230 ------- 0 0.2 5.0 -1 7
r 0.364977 0 2 encap 230 ------- 0 0.2 5.0 -1 3
+ 0.364977 2 5 encap 230 ------- 0 0.2 5.0 -1 3
- 0.364977 2 5 encap 230 ------- 0 0.2 5.0 -1 3
+ 0.365 0 2 encap 230 ------- 0 0.2 5.0 -1 9
- 0.365 0 2 encap 230 ------- 0 0.2 5.0 -1 9
r 0.368727 0 2 encap 230 ------- 0 0.2 5.0 -1 5
+ 0.368727 2 5 encap 230 ------- 0 0.2 5.0 -1 5
- 0.368727 2 5 encap 230 ------- 0 0.2 5.0 -1 5
+ 0.36875 0 2 encap 230 ------- 0 0.2 5.0 -1 11
- 0.36875 0 2 encap 230 ------- 0 0.2 5.0 -1 11
r 0.372453 2 5 encap 230 ------- 0 0.2 5.0 -1 1
r 0.372477 0 2 encap 230 ------- 0 0.2 5.0 -1 7
+ 0.372477 2 5 encap 230 ------- 0 0.2 5.0 -1 7
- 0.372477 2 5 encap 230 ------- 0 0.2 5.0 -1 7
+ 0.3725 0 2 encap 230 ------- 0 0.2 5.0 -1 13
- 0.3725 0 2 encap 230 ------- 0 0.2 5.0 -1 13
r 0.376203 2 5 encap 230 ------- 0 0.2 5.0 -1 3
r 0.376227 0 2 encap 230 ------- 0 0.2 5.0 -1 9
+ 0.376227 2 5 encap 230 ------- 0 0.2 5.0 -1 9
- 0.376227 2 5 encap 230 ------- 0 0.2 5.0 -1 9
+ 0.37625 0 2 encap 230 ------- 0 0.2 5.0 -1 15
- 0.37625 0 2 encap 230 ------- 0 0.2 5.0 -1 15
r 0.379953 2 5 encap 230 ------- 0 0.2 5.0 -1 5
r 0.379977 0 2 encap 230 ------- 0 0.2 5.0 -1 11
+ 0.379977 2 5 encap 230 ------- 0 0.2 5.0 -1 11
- 0.379977 2 5 encap 230 ------- 0 0.2 5.0 -1 11
+ 0.38 0 2 encap 230 ------- 0 0.2 5.0 -1 17
- 0.38 0 2 encap 230 ------- 0 0.2 5.0 -1 17
r 0.383703 2 5 encap 230 ------- 0 0.2 5.0 -1 7
r 0.383727 0 2 encap 230 ------- 0 0.2 5.0 -1 13
+ 0.383727 2 5 encap 230 ------- 0 0.2 5.0 -1 13
- 0.383727 2 5 encap 230 ------- 0 0.2 5.0 -1 13
+ 0.38375 0 2 encap 230 ------- 0 0.2 5.0 -1 19
- 0.38375 0 2 encap 230 ------- 0 0.2 5.0 -1 19
r 0.387453 2 5 encap 230 ------- 0 0.2 5.0 -1 9
r 0.387477 0 2 encap 230 ------- 0 0.2 5.0 -1 15
+ 0.387477 2 5 encap 230 ------- 0 0.2 5.0 -1 15
- 0.387477 2 5 encap 230 ------- 0 0.2 5.0 -1 15
+ 0.3875 0 2 encap 230 ------- 0 0.2 5.0 -1 21
- 0.3875 0 2 encap 230 ------- 0 0.2 5.0 -1 21
r 0.391203 2 5 encap 230 ------- 0 0.2 5.0 -1 11
r 0.391227 0 2 encap 230 ------- 0 0.2 5.0 -1 17
+ 0.391227 2 5 encap 230 ------- 0 0.2 5.0 -1 17
- 0.391227 2 5 encap 230 ------- 0 0.2 5.0 -1 17
+ 0.39125 0 2 encap 230 ------- 0 0.2 5.0 -1 23
- 0.39125 0 2 encap 230 ------- 0 0.2 5.0 -1 23
r 0.394953 2 5 encap 230 ------- 0 0.2 5.0 -1 13
r 0.394977 0 2 encap 230 ------- 0 0.2 5.0 -1 19
+ 0.394977 2 5 encap 230 ------- 0 0.2 5.0 -1 19
- 0.394977 2 5 encap 230 ------- 0 0.2 5.0 -1 19
+ 0.395 0 2 encap 230 ------- 0 0.2 5.0 -1 25
- 0.395 0 2 encap 230 ------- 0 0.2 5.0 -1 25
r 0.398703 2 5 encap 230 ------- 0 0.2 5.0 -1 15
r 0.398727 0 2 encap 230 ------- 0 0.2 5.0 -1 21
+ 0.398727 2 5 encap 230 ------- 0 0.2 5.0 -1 21
- 0.398727 2 5 encap 230 ------- 0 0.2 5.0 -1 21
+ 0.39875 0 2 encap 230 ------- 0 0.2 5.0 -1 27
- 0.39875 0 2 encap 230 ------- 0 0.2 5.0 -1 27
v 0.4 eval {set sim_annotation {0.40000000000000002 4 join-group 2147483648}}
r 0.402453 2 5 encap 230 ------- 0 0.2 5.0 -1 17
r 0.402477 0 2 encap 230 ------- 0 0.2 5.0 -1 23
+ 0.402477 2 5 encap 230 ------- 0 0.2 5.0 -1 23
- 0.402477 2 5 encap 230 ------- 0 0.2 5.0 -1 23
+ 0.4025 0 2 encap 230 ------- 0 0.2 5.0 -1 29
- 0.4025 0 2 encap 230 ------- 0 0.2 5.0 -1 29
r 0.406203 2 5 encap 230 ------- 0 0.2 5.0 -1 19
r 0.406227 0 2 encap 230 ------- 0 0.2 5.0 -1 25
+ 0.406227 2 5 encap 230 ------- 0 0.2 5.0 -1 25
- 0.406227 2 5 encap 230 ------- 0 0.2 5.0 -1 25
+ 0.40625 0 2 encap 230 ------- 0 0.2 5.0 -1 31
- 0.40625 0 2 encap 230 ------- 0 0.2 5.0 -1 31
r 0.409953 2 5 encap 230 ------- 0 0.2 5.0 -1 21
r 0.409977 0 2 encap 230 ------- 0 0.2 5.0 -1 27
+ 0.409977 2 5 encap 230 ------- 0 0.2 5.0 -1 27
- 0.409977 2 5 encap 230 ------- 0 0.2 5.0 -1 27
+ 0.41 0 2 encap 230 ------- 0 0.2 5.0 -1 33
- 0.41 0 2 encap 230 ------- 0 0.2 5.0 -1 33
r 0.413703 2 5 encap 230 ------- 0 0.2 5.0 -1 23
r 0.413727 0 2 encap 230 ------- 0 0.2 5.0 -1 29
+ 0.413727 2 5 encap 230 ------- 0 0.2 5.0 -1 29
- 0.413727 2 5 encap 230 ------- 0 0.2 5.0 -1 29
+ 0.41375 0 2 encap 230 ------- 0 0.2 5.0 -1 35
- 0.41375 0 2 encap 230 ------- 0 0.2 5.0 -1 35
r 0.417453 2 5 encap 230 ------- 0 0.2 5.0 -1 25
r 0.417477 0 2 encap 230 ------- 0 0.2 5.0 -1 31
+ 0.417477 2 5 encap 230 ------- 0 0.2 5.0 -1 31
- 0.417477 2 5 encap 230 ------- 0 0.2 5.0 -1 31
+ 0.4175 0 2 encap 230 ------- 0 0.2 5.0 -1 37
- 0.4175 0 2 encap 230 ------- 0 0.2 5.0 -1 37
r 0.421203 2 5 encap 230 ------- 0 0.2 5.0 -1 27
r 0.421227 0 2 encap 230 ------- 0 0.2 5.0 -1 33
+ 0.421227 2 5 encap 230 ------- 0 0.2 5.0 -1 33
- 0.421227 2 5 encap 230 ------- 0 0.2 5.0 -1 33
+ 0.42125 0 2 encap 230 ------- 0 0.2 5.0 -1 39
- 0.42125 0 2 encap 230 ------- 0 0.2 5.0 -1 39
r 0.424953 2 5 encap 230 ------- 0 0.2 5.0 -1 29
r 0.424977 0 2 encap 230 ------- 0 0.2 5.0 -1 35
+ 0.424977 2 5 encap 230 ------- 0 0.2 5.0 -1 35
- 0.424977 2 5 encap 230 ------- 0 0.2 5.0 -1 35
+ 0.425 0 2 encap 230 ------- 0 0.2 5.0 -1 41
- 0.425 0 2 encap 230 ------- 0 0.2 5.0 -1 41
r 0.428703 2 5 encap 230 ------- 0 0.2 5.0 -1 31
r 0.428727 0 2 encap 230 ------- 0 0.2 5.0 -1 37
+ 0.428727 2 5 encap 230 ------- 0 0.2 5.0 -1 37
- 0.428727 2 5 encap 230 ------- 0 0.2 5.0 -1 37
+ 0.42875 0 2 encap 230 ------- 0 0.2 5.0 -1 43
- 0.42875 0 2 encap 230 ------- 0 0.2 5.0 -1 43
r 0.432453 2 5 encap 230 ------- 0 0.2 5.0 -1 33
r 0.432477 0 2 encap 230 ------- 0 0.2 5.0 -1 39
+ 0.432477 2 5 encap 230 ------- 0 0.2 5.0 -1 39
- 0.432477 2 5 encap 230 ------- 0 0.2 5.0 -1 39
+ 0.4325 0 2 encap 230 ------- 0 0.2 5.0 -1 45
- 0.4325 0 2 encap 230 ------- 0 0.2 5.0 -1 45
r 0.436203 2 5 encap 230 ------- 0 0.2 5.0 -1 35
r 0.436227 0 2 encap 230 ------- 0 0.2 5.0 -1 41
+ 0.436227 2 5 encap 230 ------- 0 0.2 5.0 -1 41
- 0.436227 2 5 encap 230 ------- 0 0.2 5.0 -1 41
+ 0.43625 0 2 encap 230 ------- 0 0.2 5.0 -1 47
- 0.43625 0 2 encap 230 ------- 0 0.2 5.0 -1 47
r 0.439953 2 5 encap 230 ------- 0 0.2 5.0 -1 37
r 0.439977 0 2 encap 230 ------- 0 0.2 5.0 -1 43
+ 0.439977 2 5 encap 230 ------- 0 0.2 5.0 -1 43
- 0.439977 2 5 encap 230 ------- 0 0.2 5.0 -1 43
+ 0.44 0 2 encap 230 ------- 0 0.2 5.0 -1 49
- 0.44 0 2 encap 230 ------- 0 0.2 5.0 -1 49
r 0.443703 2 5 encap 230 ------- 0 0.2 5.0 -1 39
r 0.443727 0 2 encap 230 ------- 0 0.2 5.0 -1 45
+ 0.443727 2 5 encap 230 ------- 0 0.2 5.0 -1 45
- 0.443727 2 5 encap 230 ------- 0 0.2 5.0 -1 45
+ 0.44375 0 2 encap 230 ------- 0 0.2 5.0 -1 51
- 0.44375 0 2 encap 230 ------- 0 0.2 5.0 -1 51
r 0.447453 2 5 encap 230 ------- 0 0.2 5.0 -1 41
r 0.447477 0 2 encap 230 ------- 0 0.2 5.0 -1 47
+ 0.447477 2 5 encap 230 ------- 0 0.2 5.0 -1 47
- 0.447477 2 5 encap 230 ------- 0 0.2 5.0 -1 47
+ 0.4475 0 2 encap 230 ------- 0 0.2 5.0 -1 53
- 0.4475 0 2 encap 230 ------- 0 0.2 5.0 -1 53
r 0.451203 2 5 encap 230 ------- 0 0.2 5.0 -1 43
r 0.451227 0 2 encap 230 ------- 0 0.2 5.0 -1 49
+ 0.451227 2 5 encap 230 ------- 0 0.2 5.0 -1 49
- 0.451227 2 5 encap 230 ------- 0 0.2 5.0 -1 49
+ 0.45125 0 2 encap 230 ------- 0 0.2 5.0 -1 55
- 0.45125 0 2 encap 230 ------- 0 0.2 5.0 -1 55
r 0.454953 2 5 encap 230 ------- 0 0.2 5.0 -1 45
r 0.454977 0 2 encap 230 ------- 0 0.2 5.0 -1 51
+ 0.454977 2 5 encap 230 ------- 0 0.2 5.0 -1 51
- 0.454977 2 5 encap 230 ------- 0 0.2 5.0 -1 51
+ 0.455 0 2 encap 230 ------- 0 0.2 5.0 -1 57
- 0.455 0 2 encap 230 ------- 0 0.2 5.0 -1 57
r 0.458703 2 5 encap 230 ------- 0 0.2 5.0 -1 47
r 0.458727 0 2 encap 230 ------- 0 0.2 5.0 -1 53
+ 0.458727 2 5 encap 230 ------- 0 0.2 5.0 -1 53
- 0.458727 2 5 encap 230 ------- 0 0.2 5.0 -1 53
+ 0.45875 0 2 encap 230 ------- 0 0.2 5.0 -1 59
- 0.45875 0 2 encap 230 ------- 0 0.2 5.0 -1 59
r 0.462453 2 5 encap 230 ------- 0 0.2 5.0 -1 49
r 0.462477 0 2 encap 230 ------- 0 0.2 5.0 -1 55
+ 0.462477 2 5 encap 230 ------- 0 0.2 5.0 -1 55
- 0.462477 2 5 encap 230 ------- 0 0.2 5.0 -1 55
+ 0.4625 0 2 encap 230 ------- 0 0.2 5.0 -1 61
- 0.4625 0 2 encap 230 ------- 0 0.2 5.0 -1 61
r 0.466203 2 5 encap 230 ------- 0 0.2 5.0 -1 51
r 0.466227 0 2 encap 230 ------- 0 0.2 5.0 -1 57
+ 0.466227 2 5 encap 230 ------- 0 0.2 5.0 -1 57
- 0.466227 2 5 encap 230 ------- 0 0.2 5.0 -1 57
+ 0.46625 0 2 encap 230 ------- 0 0.2 5.0 -1 63
- 0.46625 0 2 encap 230 ------- 0 0.2 5.0 -1 63
r 0.469953 2 5 encap 230 ------- 0 0.2 5.0 -1 53
r 0.469977 0 2 encap 230 ------- 0 0.2 5.0 -1 59
+ 0.469977 2 5 encap 230 ------- 0 0.2 5.0 -1 59
- 0.469977 2 5 encap 230 ------- 0 0.2 5.0 -1 59
+ 0.47 0 2 encap 230 ------- 0 0.2 5.0 -1 65
- 0.47 0 2 encap 230 ------- 0 0.2 5.0 -1 65
r 0.473703 2 5 encap 230 ------- 0 0.2 5.0 -1 55
r 0.473727 0 2 encap 230 ------- 0 0.2 5.0 -1 61
+ 0.473727 2 5 encap 230 ------- 0 0.2 5.0 -1 61
- 0.473727 2 5 encap 230 ------- 0 0.2 5.0 -1 61
+ 0.47375 0 2 encap 230 ------- 0 0.2 5.0 -1 67
- 0.47375 0 2 encap 230 ------- 0 0.2 5.0 -1 67
r 0.477453 2 5 encap 230 ------- 0 0.2 5.0 -1 57
r 0.477477 0 2 encap 230 ------- 0 0.2 5.0 -1 63
+ 0.477477 2 5 encap 230 ------- 0 0.2 5.0 -1 63
- 0.477477 2 5 encap 230 ------- 0 0.2 5.0 -1 63
+ 0.4775 0 2 encap 230 ------- 0 0.2 5.0 -1 69
- 0.4775 0 2 encap 230 ------- 0 0.2 5.0 -1 69
r 0.481203 2 5 encap 230 ------- 0 0.2 5.0 -1 59
r 0.481227 0 2 encap 230 ------- 0 0.2 5.0 -1 65
+ 0.481227 2 5 encap 230 ------- 0 0.2 5.0 -1 65
- 0.481227 2 5 encap 230 ------- 0 0.2 5.0 -1 65
+ 0.48125 0 2 encap 230 ------- 0 0.2 5.0 -1 71
- 0.48125 0 2 encap 230 ------- 0 0.2 5.0 -1 71
r 0.484953 2 5 encap 230 ------- 0 0.2 5.0 -1 61
r 0.484977 0 2 encap 230 ------- 0 0.2 5.0 -1 67
+ 0.484977 2 5 encap 230 ------- 0 0.2 5.0 -1 67
- 0.484977 2 5 encap 230 ------- 0 0.2 5.0 -1 67
+ 0.485 0 2 encap 230 ------- 0 0.2 5.0 -1 73
- 0.485 0 2 encap 230 ------- 0 0.2 5.0 -1 73
r 0.488703 2 5 encap 230 ------- 0 0.2 5.0 -1 63
r 0.488727 0 2 encap 230 ------- 0 0.2 5.0 -1 69
+ 0.488727 2 5 encap 230 ------- 0 0.2 5.0 -1 69
- 0.488727 2 5 encap 230 ------- 0 0.2 5.0 -1 69
+ 0.48875 0 2 encap 230 ------- 0 0.2 5.0 -1 75
- 0.48875 0 2 encap 230 ------- 0 0.2 5.0 -1 75
r 0.492453 2 5 encap 230 ------- 0 0.2 5.0 -1 65
r 0.492477 0 2 encap 230 ------- 0 0.2 5.0 -1 71
+ 0.492477 2 5 encap 230 ------- 0 0.2 5.0 -1 71
- 0.492477 2 5 encap 230 ------- 0 0.2 5.0 -1 71
+ 0.4925 0 2 encap 230 ------- 0 0.2 5.0 -1 77
- 0.4925 0 2 encap 230 ------- 0 0.2 5.0 -1 77
r 0.496203 2 5 encap 230 ------- 0 0.2 5.0 -1 67
r 0.496227 0 2 encap 230 ------- 0 0.2 5.0 -1 73
+ 0.496227 2 5 encap 230 ------- 0 0.2 5.0 -1 73
- 0.496227 2 5 encap 230 ------- 0 0.2 5.0 -1 73
+ 0.49625 0 2 encap 230 ------- 0 0.2 5.0 -1 79
- 0.49625 0 2 encap 230 ------- 0 0.2 5.0 -1 79
r 0.499953 2 5 encap 230 ------- 0 0.2 5.0 -1 69
r 0.499977 0 2 encap 230 ------- 0 0.2 5.0 -1 75
+ 0.499977 2 5 encap 230 ------- 0 0.2 5.0 -1 75
- 0.499977 2 5 encap 230 ------- 0 0.2 5.0 -1 75
+ 0.5 0 2 encap 230 ------- 0 0.2 5.0 -1 81
- 0.5 0 2 encap 230 ------- 0 0.2 5.0 -1 81
v 0.5 eval {set sim_annotation {0.5 5 join-group 2147483648}}
r 0.503703 2 5 encap 230 ------- 0 0.2 5.0 -1 71
r 0.503727 0 2 encap 230 ------- 0 0.2 5.0 -1 77
+ 0.503727 2 5 encap 230 ------- 0 0.2 5.0 -1 77
- 0.503727 2 5 encap 230 ------- 0 0.2 5.0 -1 77
+ 0.50375 0 2 encap 230 ------- 0 0.2 5.0 -1 83
- 0.50375 0 2 encap 230 ------- 0 0.2 5.0 -1 83
r 0.507453 2 5 encap 230 ------- 0 0.2 5.0 -1 73
r 0.507477 0 2 encap 230 ------- 0 0.2 5.0 -1 79
+ 0.507477 2 5 encap 230 ------- 0 0.2 5.0 -1 79
- 0.507477 2 5 encap 230 ------- 0 0.2 5.0 -1 79
+ 0.5075 0 2 encap 230 ------- 0 0.2 5.0 -1 85
- 0.5075 0 2 encap 230 ------- 0 0.2 5.0 -1 85
r 0.511203 2 5 encap 230 ------- 0 0.2 5.0 -1 75
r 0.511227 0 2 encap 230 ------- 0 0.2 5.0 -1 81
+ 0.511227 2 5 encap 230 ------- 0 0.2 5.0 -1 81
- 0.511227 2 5 encap 230 ------- 0 0.2 5.0 -1 81
+ 0.51125 0 2 encap 230 ------- 0 0.2 5.0 -1 87
- 0.51125 0 2 encap 230 ------- 0 0.2 5.0 -1 87
r 0.514953 2 5 encap 230 ------- 0 0.2 5.0 -1 77
r 0.514977 0 2 encap 230 ------- 0 0.2 5.0 -1 83
+ 0.514977 2 5 encap 230 ------- 0 0.2 5.0 -1 83
- 0.514977 2 5 encap 230 ------- 0 0.2 5.0 -1 83
+ 0.515 0 2 encap 230 ------- 0 0.2 5.0 -1 89
- 0.515 0 2 encap 230 ------- 0 0.2 5.0 -1 89
r 0.518703 2 5 encap 230 ------- 0 0.2 5.0 -1 79
r 0.518727 0 2 encap 230 ------- 0 0.2 5.0 -1 85
+ 0.518727 2 5 encap 230 ------- 0 0.2 5.0 -1 85
- 0.518727 2 5 encap 230 ------- 0 0.2 5.0 -1 85
+ 0.51875 0 2 encap 230 ------- 0 0.2 5.0 -1 91
- 0.51875 0 2 encap 230 ------- 0 0.2 5.0 -1 91
r 0.522453 2 5 encap 230 ------- 0 0.2 5.0 -1 81
r 0.522477 0 2 encap 230 ------- 0 0.2 5.0 -1 87
+ 0.522477 2 5 encap 230 ------- 0 0.2 5.0 -1 87
- 0.522477 2 5 encap 230 ------- 0 0.2 5.0 -1 87
+ 0.5225 0 2 encap 230 ------- 0 0.2 5.0 -1 93
- 0.5225 0 2 encap 230 ------- 0 0.2 5.0 -1 93
r 0.526203 2 5 encap 230 ------- 0 0.2 5.0 -1 83
r 0.526227 0 2 encap 230 ------- 0 0.2 5.0 -1 89
+ 0.526227 2 5 encap 230 ------- 0 0.2 5.0 -1 89
- 0.526227 2 5 encap 230 ------- 0 0.2 5.0 -1 89
+ 0.52625 0 2 encap 230 ------- 0 0.2 5.0 -1 95
- 0.52625 0 2 encap 230 ------- 0 0.2 5.0 -1 95
r 0.529953 2 5 encap 230 ------- 0 0.2 5.0 -1 85
r 0.529977 0 2 encap 230 ------- 0 0.2 5.0 -1 91
+ 0.529977 2 5 encap 230 ------- 0 0.2 5.0 -1 91
- 0.529977 2 5 encap 230 ------- 0 0.2 5.0 -1 91
+ 0.53 0 2 encap 230 ------- 0 0.2 5.0 -1 97
- 0.53 0 2 encap 230 ------- 0 0.2 5.0 -1 97
r 0.533703 2 5 encap 230 ------- 0 0.2 5.0 -1 87
r 0.533727 0 2 encap 230 ------- 0 0.2 5.0 -1 93
+ 0.533727 2 5 encap 230 ------- 0 0.2 5.0 -1 93
- 0.533727 2 5 encap 230 ------- 0 0.2 5.0 -1 93
+ 0.53375 0 2 encap 230 ------- 0 0.2 5.0 -1 99
- 0.53375 0 2 encap 230 ------- 0 0.2 5.0 -1 99
r 0.537453 2 5 encap 230 ------- 0 0.2 5.0 -1 89
r 0.537477 0 2 encap 230 ------- 0 0.2 5.0 -1 95
+ 0.537477 2 5 encap 230 ------- 0 0.2 5.0 -1 95
- 0.537477 2 5 encap 230 ------- 0 0.2 5.0 -1 95
+ 0.5375 0 2 encap 230 ------- 0 0.2 5.0 -1 101
- 0.5375 0 2 encap 230 ------- 0 0.2 5.0 -1 101
r 0.541203 2 5 encap 230 ------- 0 0.2 5.0 -1 91
r 0.541227 0 2 encap 230 ------- 0 0.2 5.0 -1 97
+ 0.541227 2 5 encap 230 ------- 0 0.2 5.0 -1 97
- 0.541227 2 5 encap 230 ------- 0 0.2 5.0 -1 97
+ 0.54125 0 2 encap 230 ------- 0 0.2 5.0 -1 103
- 0.54125 0 2 encap 230 ------- 0 0.2 5.0 -1 103
r 0.544953 2 5 encap 230 ------- 0 0.2 5.0 -1 93
r 0.544977 0 2 encap 230 ------- 0 0.2 5.0 -1 99
+ 0.544977 2 5 encap 230 ------- 0 0.2 5.0 -1 99
- 0.544977 2 5 encap 230 ------- 0 0.2 5.0 -1 99
+ 0.545 0 2 encap 230 ------- 0 0.2 5.0 -1 105
- 0.545 0 2 encap 230 ------- 0 0.2 5.0 -1 105
r 0.548703 2 5 encap 230 ------- 0 0.2 5.0 -1 95
r 0.548727 0 2 encap 230 ------- 0 0.2 5.0 -1 101
+ 0.548727 2 5 encap 230 ------- 0 0.2 5.0 -1 101
- 0.548727 2 5 encap 230 ------- 0 0.2 5.0 -1 101
+ 0.54875 0 2 encap 230 ------- 0 0.2 5.0 -1 107
- 0.54875 0 2 encap 230 ------- 0 0.2 5.0 -1 107
r 0.552453 2 5 encap 230 ------- 0 0.2 5.0 -1 97
r 0.552477 0 2 encap 230 ------- 0 0.2 5.0 -1 103
+ 0.552477 2 5 encap 230 ------- 0 0.2 5.0 -1 103
- 0.552477 2 5 encap 230 ------- 0 0.2 5.0 -1 103
+ 0.5525 0 2 encap 230 ------- 0 0.2 5.0 -1 109
- 0.5525 0 2 encap 230 ------- 0 0.2 5.0 -1 109
r 0.556203 2 5 encap 230 ------- 0 0.2 5.0 -1 99
r 0.556227 0 2 encap 230 ------- 0 0.2 5.0 -1 105
+ 0.556227 2 5 encap 230 ------- 0 0.2 5.0 -1 105
- 0.556227 2 5 encap 230 ------- 0 0.2 5.0 -1 105
+ 0.55625 0 2 encap 230 ------- 0 0.2 5.0 -1 111
- 0.55625 0 2 encap 230 ------- 0 0.2 5.0 -1 111
r 0.559953 2 5 encap 230 ------- 0 0.2 5.0 -1 101
r 0.559977 0 2 encap 230 ------- 0 0.2 5.0 -1 107
+ 0.559977 2 5 encap 230 ------- 0 0.2 5.0 -1 107
- 0.559977 2 5 encap 230 ------- 0 0.2 5.0 -1 107
+ 0.56 0 2 encap 230 ------- 0 0.2 5.0 -1 113
- 0.56 0 2 encap 230 ------- 0 0.2 5.0 -1 113
r 0.563703 2 5 encap 230 ------- 0 0.2 5.0 -1 103
r 0.563727 0 2 encap 230 ------- 0 0.2 5.0 -1 109
+ 0.563727 2 5 encap 230 ------- 0 0.2 5.0 -1 109
- 0.563727 2 5 encap 230 ------- 0 0.2 5.0 -1 109
+ 0.56375 0 2 encap 230 ------- 0 0.2 5.0 -1 115
- 0.56375 0 2 encap 230 ------- 0 0.2 5.0 -1 115
r 0.567453 2 5 encap 230 ------- 0 0.2 5.0 -1 105
r 0.567477 0 2 encap 230 ------- 0 0.2 5.0 -1 111
+ 0.567477 2 5 encap 230 ------- 0 0.2 5.0 -1 111
- 0.567477 2 5 encap 230 ------- 0 0.2 5.0 -1 111
+ 0.5675 0 2 encap 230 ------- 0 0.2 5.0 -1 117
- 0.5675 0 2 encap 230 ------- 0 0.2 5.0 -1 117
r 0.571203 2 5 encap 230 ------- 0 0.2 5.0 -1 107
r 0.571227 0 2 encap 230 ------- 0 0.2 5.0 -1 113
+ 0.571227 2 5 encap 230 ------- 0 0.2 5.0 -1 113
- 0.571227 2 5 encap 230 ------- 0 0.2 5.0 -1 113
+ 0.57125 0 2 encap 230 ------- 0 0.2 5.0 -1 119
- 0.57125 0 2 encap 230 ------- 0 0.2 5.0 -1 119
r 0.574953 2 5 encap 230 ------- 0 0.2 5.0 -1 109
r 0.574977 0 2 encap 230 ------- 0 0.2 5.0 -1 115
+ 0.574977 2 5 encap 230 ------- 0 0.2 5.0 -1 115
- 0.574977 2 5 encap 230 ------- 0 0.2 5.0 -1 115
+ 0.575 0 2 encap 230 ------- 0 0.2 5.0 -1 121
- 0.575 0 2 encap 230 ------- 0 0.2 5.0 -1 121
r 0.578703 2 5 encap 230 ------- 0 0.2 5.0 -1 111
r 0.578727 0 2 encap 230 ------- 0 0.2 5.0 -1 117
+ 0.578727 2 5 encap 230 ------- 0 0.2 5.0 -1 117
- 0.578727 2 5 encap 230 ------- 0 0.2 5.0 -1 117
+ 0.57875 0 2 encap 230 ------- 0 0.2 5.0 -1 123
- 0.57875 0 2 encap 230 ------- 0 0.2 5.0 -1 123
r 0.582453 2 5 encap 230 ------- 0 0.2 5.0 -1 113
r 0.582477 0 2 encap 230 ------- 0 0.2 5.0 -1 119
+ 0.582477 2 5 encap 230 ------- 0 0.2 5.0 -1 119
- 0.582477 2 5 encap 230 ------- 0 0.2 5.0 -1 119
+ 0.5825 0 2 encap 230 ------- 0 0.2 5.0 -1 125
- 0.5825 0 2 encap 230 ------- 0 0.2 5.0 -1 125
r 0.586203 2 5 encap 230 ------- 0 0.2 5.0 -1 115
r 0.586227 0 2 encap 230 ------- 0 0.2 5.0 -1 121
+ 0.586227 2 5 encap 230 ------- 0 0.2 5.0 -1 121
- 0.586227 2 5 encap 230 ------- 0 0.2 5.0 -1 121
+ 0.58625 0 2 encap 230 ------- 0 0.2 5.0 -1 127
- 0.58625 0 2 encap 230 ------- 0 0.2 5.0 -1 127
r 0.589953 2 5 encap 230 ------- 0 0.2 5.0 -1 117
r 0.589977 0 2 encap 230 ------- 0 0.2 5.0 -1 123
+ 0.589977 2 5 encap 230 ------- 0 0.2 5.0 -1 123
- 0.589977 2 5 encap 230 ------- 0 0.2 5.0 -1 123
+ 0.59 0 2 encap 230 ------- 0 0.2 5.0 -1 129
- 0.59 0 2 encap 230 ------- 0 0.2 5.0 -1 129
r 0.593703 2 5 encap 230 ------- 0 0.2 5.0 -1 119
r 0.593727 0 2 encap 230 ------- 0 0.2 5.0 -1 125
+ 0.593727 2 5 encap 230 ------- 0 0.2 5.0 -1 125
- 0.593727 2 5 encap 230 ------- 0 0.2 5.0 -1 125
+ 0.59375 0 2 encap 230 ------- 0 0.2 5.0 -1 131
- 0.59375 0 2 encap 230 ------- 0 0.2 5.0 -1 131
r 0.597453 2 5 encap 230 ------- 0 0.2 5.0 -1 121
r 0.597477 0 2 encap 230 ------- 0 0.2 5.0 -1 127
+ 0.597477 2 5 encap 230 ------- 0 0.2 5.0 -1 127
- 0.597477 2 5 encap 230 ------- 0 0.2 5.0 -1 127
+ 0.5975 0 2 encap 230 ------- 0 0.2 5.0 -1 133
- 0.5975 0 2 encap 230 ------- 0 0.2 5.0 -1 133
v 0.59999999999999998 link-down 4 2
v 0.59999999999999998 link-down 4 2
v 0.59999999999999998 link-down 2 4
v 0.59999999999999998 link-down 2 4
r 0.601203 2 5 encap 230 ------- 0 0.2 5.0 -1 123
r 0.601227 0 2 encap 230 ------- 0 0.2 5.0 -1 129
+ 0.601227 2 5 encap 230 ------- 0 0.2 5.0 -1 129
- 0.601227 2 5 encap 230 ------- 0 0.2 5.0 -1 129
+ 0.60125 0 2 encap 230 ------- 0 0.2 5.0 -1 135
- 0.60125 0 2 encap 230 ------- 0 0.2 5.0 -1 135
r 0.604953 2 5 encap 230 ------- 0 0.2 5.0 -1 125
r 0.604977 0 2 encap 230 ------- 0 0.2 5.0 -1 131
+ 0.604977 2 5 encap 230 ------- 0 0.2 5.0 -1 131
- 0.604977 2 5 encap 230 ------- 0 0.2 5.0 -1 131
+ 0.605 0 2 encap 230 ------- 0 0.2 5.0 -1 137
- 0.605 0 2 encap 230 ------- 0 0.2 5.0 -1 137
r 0.608703 2 5 encap 230 ------- 0 0.2 5.0 -1 127
r 0.608727 0 2 encap 230 ------- 0 0.2 5.0 -1 133
+ 0.608727 2 5 encap 230 ------- 0 0.2 5.0 -1 133
- 0.608727 2 5 encap 230 ------- 0 0.2 5.0 -1 133
+ 0.60875 0 2 encap 230 ------- 0 0.2 5.0 -1 139
- 0.60875 0 2 encap 230 ------- 0 0.2 5.0 -1 139
r 0.612453 2 5 encap 230 ------- 0 0.2 5.0 -1 129
r 0.612477 0 2 encap 230 ------- 0 0.2 5.0 -1 135
+ 0.612477 2 5 encap 230 ------- 0 0.2 5.0 -1 135
- 0.612477 2 5 encap 230 ------- 0 0.2 5.0 -1 135
+ 0.6125 0 2 encap 230 ------- 0 0.2 5.0 -1 141
- 0.6125 0 2 encap 230 ------- 0 0.2 5.0 -1 141
r 0.616203 2 5 encap 230 ------- 0 0.2 5.0 -1 131
r 0.616227 0 2 encap 230 ------- 0 0.2 5.0 -1 137
+ 0.616227 2 5 encap 230 ------- 0 0.2 5.0 -1 137
- 0.616227 2 5 encap 230 ------- 0 0.2 5.0 -1 137
+ 0.61625 0 2 encap 230 ------- 0 0.2 5.0 -1 143
- 0.61625 0 2 encap 230 ------- 0 0.2 5.0 -1 143
r 0.619953 2 5 encap 230 ------- 0 0.2 5.0 -1 133
r 0.619977 0 2 encap 230 ------- 0 0.2 5.0 -1 139
+ 0.619977 2 5 encap 230 ------- 0 0.2 5.0 -1 139
- 0.619977 2 5 encap 230 ------- 0 0.2 5.0 -1 139
+ 0.62 0 2 encap 230 ------- 0 0.2 5.0 -1 145
- 0.62 0 2 encap 230 ------- 0 0.2 5.0 -1 145
r 0.623703 2 5 encap 230 ------- 0 0.2 5.0 -1 135
r 0.623727 0 2 encap 230 ------- 0 0.2 5.0 -1 141
+ 0.623727 2 5 encap 230 ------- 0 0.2 5.0 -1 141
- 0.623727 2 5 encap 230 ------- 0 0.2 5.0 -1 141
+ 0.62375 0 2 encap 230 ------- 0 0.2 5.0 -1 147
- 0.62375 0 2 encap 230 ------- 0 0.2 5.0 -1 147
r 0.627453 2 5 encap 230 ------- 0 0.2 5.0 -1 137
r 0.627477 0 2 encap 230 ------- 0 0.2 5.0 -1 143
+ 0.627477 2 5 encap 230 ------- 0 0.2 5.0 -1 143
- 0.627477 2 5 encap 230 ------- 0 0.2 5.0 -1 143
+ 0.6275 0 2 encap 230 ------- 0 0.2 5.0 -1 149
- 0.6275 0 2 encap 230 ------- 0 0.2 5.0 -1 149
r 0.631203 2 5 encap 230 ------- 0 0.2 5.0 -1 139
r 0.631227 0 2 encap 230 ------- 0 0.2 5.0 -1 145
+ 0.631227 2 5 encap 230 ------- 0 0.2 5.0 -1 145
- 0.631227 2 5 encap 230 ------- 0 0.2 5.0 -1 145
+ 0.63125 0 2 encap 230 ------- 0 0.2 5.0 -1 151
- 0.63125 0 2 encap 230 ------- 0 0.2 5.0 -1 151
r 0.634953 2 5 encap 230 ------- 0 0.2 5.0 -1 141
r 0.634977 0 2 encap 230 ------- 0 0.2 5.0 -1 147
+ 0.634977 2 5 encap 230 ------- 0 0.2 5.0 -1 147
- 0.634977 2 5 encap 230 ------- 0 0.2 5.0 -1 147
+ 0.635 0 2 encap 230 ------- 0 0.2 5.0 -1 153
- 0.635 0 2 encap 230 ------- 0 0.2 5.0 -1 153
r 0.638703 2 5 encap 230 ------- 0 0.2 5.0 -1 143
r 0.638727 0 2 encap 230 ------- 0 0.2 5.0 -1 149
+ 0.638727 2 5 encap 230 ------- 0 0.2 5.0 -1 149
- 0.638727 2 5 encap 230 ------- 0 0.2 5.0 -1 149
+ 0.63875 0 2 encap 230 ------- 0 0.2 5.0 -1 155
- 0.63875 0 2 encap 230 ------- 0 0.2 5.0 -1 155
r 0.642453 2 5 encap 230 ------- 0 0.2 5.0 -1 145
r 0.642477 0 2 encap 230 ------- 0 0.2 5.0 -1 151
+ 0.642477 2 5 encap 230 ------- 0 0.2 5.0 -1 151
- 0.642477 2 5 encap 230 ------- 0 0.2 5.0 -1 151
+ 0.6425 0 2 encap 230 ------- 0 0.2 5.0 -1 157
- 0.6425 0 2 encap 230 ------- 0 0.2 5.0 -1 157
r 0.646203 2 5 encap 230 ------- 0 0.2 5.0 -1 147
r 0.646227 0 2 encap 230 ------- 0 0.2 5.0 -1 153
+ 0.646227 2 5 encap 230 ------- 0 0.2 5.0 -1 153
- 0.646227 2 5 encap 230 ------- 0 0.2 5.0 -1 153
+ 0.64625 0 2 encap 230 ------- 0 0.2 5.0 -1 159
- 0.64625 0 2 encap 230 ------- 0 0.2 5.0 -1 159
r 0.649953 2 5 encap 230 ------- 0 0.2 5.0 -1 149
r 0.649977 0 2 encap 230 ------- 0 0.2 5.0 -1 155
+ 0.649977 2 5 encap 230 ------- 0 0.2 5.0 -1 155
- 0.649977 2 5 encap 230 ------- 0 0.2 5.0 -1 155
+ 0.65 0 2 encap 230 ------- 0 0.2 5.0 -1 161
- 0.65 0 2 encap 230 ------- 0 0.2 5.0 -1 161
r 0.653703 2 5 encap 230 ------- 0 0.2 5.0 -1 151
r 0.653727 0 2 encap 230 ------- 0 0.2 5.0 -1 157
+ 0.653727 2 5 encap 230 ------- 0 0.2 5.0 -1 157
- 0.653727 2 5 encap 230 ------- 0 0.2 5.0 -1 157
+ 0.65375 0 2 encap 230 ------- 0 0.2 5.0 -1 163
- 0.65375 0 2 encap 230 ------- 0 0.2 5.0 -1 163
r 0.657453 2 5 encap 230 ------- 0 0.2 5.0 -1 153
r 0.657477 0 2 encap 230 ------- 0 0.2 5.0 -1 159
+ 0.657477 2 5 encap 230 ------- 0 0.2 5.0 -1 159
- 0.657477 2 5 encap 230 ------- 0 0.2 5.0 -1 159
+ 0.6575 0 2 encap 230 ------- 0 0.2 5.0 -1 165
- 0.6575 0 2 encap 230 ------- 0 0.2 5.0 -1 165
r 0.661203 2 5 encap 230 ------- 0 0.2 5.0 -1 155
r 0.661227 0 2 encap 230 ------- 0 0.2 5.0 -1 161
+ 0.661227 2 5 encap 230 ------- 0 0.2 5.0 -1 161
- 0.661227 2 5 encap 230 ------- 0 0.2 5.0 -1 161
+ 0.66125 0 2 encap 230 ------- 0 0.2 5.0 -1 167
- 0.66125 0 2 encap 230 ------- 0 0.2 5.0 -1 167
r 0.664953 2 5 encap 230 ------- 0 0.2 5.0 -1 157
r 0.664977 0 2 encap 230 ------- 0 0.2 5.0 -1 163
+ 0.664977 2 5 encap 230 ------- 0 0.2 5.0 -1 163
- 0.664977 2 5 encap 230 ------- 0 0.2 5.0 -1 163
+ 0.665 0 2 encap 230 ------- 0 0.2 5.0 -1 169
- 0.665 0 2 encap 230 ------- 0 0.2 5.0 -1 169
r 0.668703 2 5 encap 230 ------- 0 0.2 5.0 -1 159
r 0.668727 0 2 encap 230 ------- 0 0.2 5.0 -1 165
+ 0.668727 2 5 encap 230 ------- 0 0.2 5.0 -1 165
- 0.668727 2 5 encap 230 ------- 0 0.2 5.0 -1 165
+ 0.66875 0 2 encap 230 ------- 0 0.2 5.0 -1 171
- 0.66875 0 2 encap 230 ------- 0 0.2 5.0 -1 171
r 0.672453 2 5 encap 230 ------- 0 0.2 5.0 -1 161
r 0.672477 0 2 encap 230 ------- 0 0.2 5.0 -1 167
+ 0.672477 2 5 encap 230 ------- 0 0.2 5.0 -1 167
- 0.672477 2 5 encap 230 ------- 0 0.2 5.0 -1 167
+ 0.6725 0 2 encap 230 ------- 0 0.2 5.0 -1 173
- 0.6725 0 2 encap 230 ------- 0 0.2 5.0 -1 173
r 0.676203 2 5 encap 230 ------- 0 0.2 5.0 -1 163
r 0.676227 0 2 encap 230 ------- 0 0.2 5.0 -1 169
+ 0.676227 2 5 encap 230 ------- 0 0.2 5.0 -1 169
- 0.676227 2 5 encap 230 ------- 0 0.2 5.0 -1 169
+ 0.67625 0 2 encap 230 ------- 0 0.2 5.0 -1 175
- 0.67625 0 2 encap 230 ------- 0 0.2 5.0 -1 175
r 0.679953 2 5 encap 230 ------- 0 0.2 5.0 -1 165
r 0.679977 0 2 encap 230 ------- 0 0.2 5.0 -1 171
+ 0.679977 2 5 encap 230 ------- 0 0.2 5.0 -1 171
- 0.679977 2 5 encap 230 ------- 0 0.2 5.0 -1 171
+ 0.68 0 2 encap 230 ------- 0 0.2 5.0 -1 177
- 0.68 0 2 encap 230 ------- 0 0.2 5.0 -1 177
r 0.683703 2 5 encap 230 ------- 0 0.2 5.0 -1 167
r 0.683727 0 2 encap 230 ------- 0 0.2 5.0 -1 173
+ 0.683727 2 5 encap 230 ------- 0 0.2 5.0 -1 173
- 0.683727 2 5 encap 230 ------- 0 0.2 5.0 -1 173
+ 0.68375 0 2 encap 230 ------- 0 0.2 5.0 -1 179
- 0.68375 0 2 encap 230 ------- 0 0.2 5.0 -1 179
r 0.687453 2 5 encap 230 ------- 0 0.2 5.0 -1 169
r 0.687477 0 2 encap 230 ------- 0 0.2 5.0 -1 175
+ 0.687477 2 5 encap 230 ------- 0 0.2 5.0 -1 175
- 0.687477 2 5 encap 230 ------- 0 0.2 5.0 -1 175
+ 0.6875 0 2 encap 230 ------- 0 0.2 5.0 -1 181
- 0.6875 0 2 encap 230 ------- 0 0.2 5.0 -1 181
r 0.691203 2 5 encap 230 ------- 0 0.2 5.0 -1 171
r 0.691227 0 2 encap 230 ------- 0 0.2 5.0 -1 177
+ 0.691227 2 5 encap 230 ------- 0 0.2 5.0 -1 177
- 0.691227 2 5 encap 230 ------- 0 0.2 5.0 -1 177
+ 0.69125 0 2 encap 230 ------- 0 0.2 5.0 -1 183
- 0.69125 0 2 encap 230 ------- 0 0.2 5.0 -1 183
r 0.694953 2 5 encap 230 ------- 0 0.2 5.0 -1 173
r 0.694977 0 2 encap 230 ------- 0 0.2 5.0 -1 179
+ 0.694977 2 5 encap 230 ------- 0 0.2 5.0 -1 179
- 0.694977 2 5 encap 230 ------- 0 0.2 5.0 -1 179
+ 0.695 0 2 encap 230 ------- 0 0.2 5.0 -1 185
- 0.695 0 2 encap 230 ------- 0 0.2 5.0 -1 185
r 0.698703 2 5 encap 230 ------- 0 0.2 5.0 -1 175
r 0.698727 0 2 encap 230 ------- 0 0.2 5.0 -1 181
+ 0.698727 2 5 encap 230 ------- 0 0.2 5.0 -1 181
- 0.698727 2 5 encap 230 ------- 0 0.2 5.0 -1 181
+ 0.69875 0 2 encap 230 ------- 0 0.2 5.0 -1 187
- 0.69875 0 2 encap 230 ------- 0 0.2 5.0 -1 187
r 0.702453 2 5 encap 230 ------- 0 0.2 5.0 -1 177
r 0.702477 0 2 encap 230 ------- 0 0.2 5.0 -1 183
+ 0.702477 2 5 encap 230 ------- 0 0.2 5.0 -1 183
- 0.702477 2 5 encap 230 ------- 0 0.2 5.0 -1 183
+ 0.7025 0 2 encap 230 ------- 0 0.2 5.0 -1 189
- 0.7025 0 2 encap 230 ------- 0 0.2 5.0 -1 189
r 0.706203 2 5 encap 230 ------- 0 0.2 5.0 -1 179
r 0.706227 0 2 encap 230 ------- 0 0.2 5.0 -1 185
+ 0.706227 2 5 encap 230 ------- 0 0.2 5.0 -1 185
- 0.706227 2 5 encap 230 ------- 0 0.2 5.0 -1 185
+ 0.70625 0 2 encap 230 ------- 0 0.2 5.0 -1 191
- 0.70625 0 2 encap 230 ------- 0 0.2 5.0 -1 191
r 0.709953 2 5 encap 230 ------- 0 0.2 5.0 -1 181
r 0.709977 0 2 encap 230 ------- 0 0.2 5.0 -1 187
+ 0.709977 2 5 encap 230 ------- 0 0.2 5.0 -1 187
- 0.709977 2 5 encap 230 ------- 0 0.2 5.0 -1 187
+ 0.71 0 2 encap 230 ------- 0 0.2 5.0 -1 193
- 0.71 0 2 encap 230 ------- 0 0.2 5.0 -1 193
r 0.713703 2 5 encap 230 ------- 0 0.2 5.0 -1 183
r 0.713727 0 2 encap 230 ------- 0 0.2 5.0 -1 189
+ 0.713727 2 5 encap 230 ------- 0 0.2 5.0 -1 189
- 0.713727 2 5 encap 230 ------- 0 0.2 5.0 -1 189
+ 0.71375 0 2 encap 230 ------- 0 0.2 5.0 -1 195
- 0.71375 0 2 encap 230 ------- 0 0.2 5.0 -1 195
r 0.717453 2 5 encap 230 ------- 0 0.2 5.0 -1 185
r 0.717477 0 2 encap 230 ------- 0 0.2 5.0 -1 191
+ 0.717477 2 5 encap 230 ------- 0 0.2 5.0 -1 191
- 0.717477 2 5 encap 230 ------- 0 0.2 5.0 -1 191
+ 0.7175 0 2 encap 230 ------- 0 0.2 5.0 -1 197
- 0.7175 0 2 encap 230 ------- 0 0.2 5.0 -1 197
r 0.721203 2 5 encap 230 ------- 0 0.2 5.0 -1 187
r 0.721227 0 2 encap 230 ------- 0 0.2 5.0 -1 193
+ 0.721227 2 5 encap 230 ------- 0 0.2 5.0 -1 193
- 0.721227 2 5 encap 230 ------- 0 0.2 5.0 -1 193
+ 0.72125 0 2 encap 230 ------- 0 0.2 5.0 -1 199
- 0.72125 0 2 encap 230 ------- 0 0.2 5.0 -1 199
r 0.724953 2 5 encap 230 ------- 0 0.2 5.0 -1 189
r 0.724977 0 2 encap 230 ------- 0 0.2 5.0 -1 195
+ 0.724977 2 5 encap 230 ------- 0 0.2 5.0 -1 195
- 0.724977 2 5 encap 230 ------- 0 0.2 5.0 -1 195
+ 0.725 0 2 encap 230 ------- 0 0.2 5.0 -1 201
- 0.725 0 2 encap 230 ------- 0 0.2 5.0 -1 201
r 0.728703 2 5 encap 230 ------- 0 0.2 5.0 -1 191
r 0.728727 0 2 encap 230 ------- 0 0.2 5.0 -1 197
+ 0.728727 2 5 encap 230 ------- 0 0.2 5.0 -1 197
- 0.728727 2 5 encap 230 ------- 0 0.2 5.0 -1 197
+ 0.72875 0 2 encap 230 ------- 0 0.2 5.0 -1 203
- 0.72875 0 2 encap 230 ------- 0 0.2 5.0 -1 203
r 0.732453 2 5 encap 230 ------- 0 0.2 5.0 -1 193
r 0.732477 0 2 encap 230 ------- 0 0.2 5.0 -1 199
+ 0.732477 2 5 encap 230 ------- 0 0.2 5.0 -1 199
- 0.732477 2 5 encap 230 ------- 0 0.2 5.0 -1 199
+ 0.7325 0 2 encap 230 ------- 0 0.2 5.0 -1 205
- 0.7325 0 2 encap 230 ------- 0 0.2 5.0 -1 205
r 0.736203 2 5 encap 230 ------- 0 0.2 5.0 -1 195
r 0.736227 0 2 encap 230 ------- 0 0.2 5.0 -1 201
+ 0.736227 2 5 encap 230 ------- 0 0.2 5.0 -1 201
- 0.736227 2 5 encap 230 ------- 0 0.2 5.0 -1 201