+ 0.25 3 1 encap 230 ------- 0 3.3 2.0 -1 15
- 0.25 3 1 encap 230 ------- 0 3.3 2.0 -1 15
+ 0.25375 3 1 encap 230 ------- 0 3.3 2.0 -1 18
- 0.25375 3 1 encap 230 ------- 0 3.3 2.0 -1 18
+ 0.2575 3 1 encap 230 ------- 0 3.3 2.0 -1 21
- 0.2575 3 1 encap 230 ------- 0 3.3 2.0 -1 21
r 0.261227 3 1 encap 230 ------- 0 3.3 2.0 -1 15
+ 0.261227 1 2 encap 230 ------- 0 3.3 2.0 -1 15
- 0.261227 1 2 encap 230 ------- 0 3.3 2.0 -1 15
+ 0.26125 3 1 encap 230 ------- 0 3.3 2.0 -1 24
- 0.26125 3 1 encap 230 ------- 0 3.3 2.0 -1 24
r 0.264977 3 1 encap 230 ------- 0 3.3 2.0 -1 18
+ 0.264977 1 2 encap 230 ------- 0 3.3 2.0 -1 18
- 0.264977 1 2 encap 230 ------- 0 3.3 2.0 -1 18
+ 0.265 3 1 encap 230 ------- 0 3.3 2.0 -1 27
- 0.265 3 1 encap 230 ------- 0 3.3 2.0 -1 27
r 0.268727 3 1 encap 230 ------- 0 3.3 2.0 -1 21
+ 0.268727 1 2 encap 230 ------- 0 3.3 2.0 -1 21
- 0.268727 1 2 encap 230 ------- 0 3.3 2.0 -1 21
+ 0.26875 3 1 encap 230 ------- 0 3.3 2.0 -1 30
- 0.26875 3 1 encap 230 ------- 0 3.3 2.0 -1 30
r 0.272453 1 2 encap 230 ------- 0 3.3 2.0 -1 15
r 0.272477 3 1 encap 230 ------- 0 3.3 2.0 -1 24
+ 0.272477 1 2 encap 230 ------- 0 3.3 2.0 -1 24
- 0.272477 1 2 encap 230 ------- 0 3.3 2.0 -1 24
+ 0.2725 3 1 encap 230 ------- 0 3.3 2.0 -1 33
- 0.2725 3 1 encap 230 ------- 0 3.3 2.0 -1 33
r 0.276203 1 2 encap 230 ------- 0 3.3 2.0 -1 18
r 0.276227 3 1 encap 230 ------- 0 3.3 2.0 -1 27
+ 0.276227 1 2 encap 230 ------- 0 3.3 2.0 -1 27
- 0.276227 1 2 encap 230 ------- 0 3.3 2.0 -1 27
+ 0.27625 3 1 encap 230 ------- 0 3.3 2.0 -1 36
- 0.27625 3 1 encap 230 ------- 0 3.3 2.0 -1 36
r 0.279953 1 2 encap 230 ------- 0 3.3 2.0 -1 21
r 0.279977 3 1 encap 230 ------- 0 3.3 2.0 -1 30
+ 0.279977 1 2 encap 230 ------- 0 3.3 2.0 -1 30
- 0.279977 1 2 encap 230 ------- 0 3.3 2.0 -1 30
+ 0.28 3 1 encap 230 ------- 0 3.3 2.0 -1 39
- 0.28 3 1 encap 230 ------- 0 3.3 2.0 -1 39
r 0.283703 1 2 encap 230 ------- 0 3.3 2.0 -1 24
r 0.283727 3 1 encap 230 ------- 0 3.3 2.0 -1 33
+ 0.283727 1 2 encap 230 ------- 0 3.3 2.0 -1 33
- 0.283727 1 2 encap 230 ------- 0 3.3 2.0 -1 33
+ 0.28375 3 1 encap 230 ------- 0 3.3 2.0 -1 42
- 0.28375 3 1 encap 230 ------- 0 3.3 2.0 -1 42
r 0.287453 1 2 encap 230 ------- 0 3.3 2.0 -1 27
r 0.287477 3 1 encap 230 ------- 0 3.3 2.0 -1 36
+ 0.287477 1 2 encap 230 ------- 0 3.3 2.0 -1 36
- 0.287477 1 2 encap 230 ------- 0 3.3 2.0 -1 36
+ 0.2875 3 1 encap 230 ------- 0 3.3 2.0 -1 45
- 0.2875 3 1 encap 230 ------- 0 3.3 2.0 -1 45
r 0.291203 1 2 encap 230 ------- 0 3.3 2.0 -1 30
r 0.291227 3 1 encap 230 ------- 0 3.3 2.0 -1 39
+ 0.291227 1 2 encap 230 ------- 0 3.3 2.0 -1 39
- 0.291227 1 2 encap 230 ------- 0 3.3 2.0 -1 39
+ 0.29125 3 1 encap 230 ------- 0 3.3 2.0 -1 48
- 0.29125 3 1 encap 230 ------- 0 3.3 2.0 -1 48
r 0.294953 1 2 encap 230 ------- 0 3.3 2.0 -1 33
r 0.294977 3 1 encap 230 ------- 0 3.3 2.0 -1 42
+ 0.294977 1 2 encap 230 ------- 0 3.3 2.0 -1 42
- 0.294977 1 2 encap 230 ------- 0 3.3 2.0 -1 42
+ 0.295 3 1 encap 230 ------- 0 3.3 2.0 -1 51
- 0.295 3 1 encap 230 ------- 0 3.3 2.0 -1 51
r 0.298703 1 2 encap 230 ------- 0 3.3 2.0 -1 36
r 0.298727 3 1 encap 230 ------- 0 3.3 2.0 -1 45
+ 0.298727 1 2 encap 230 ------- 0 3.3 2.0 -1 45
- 0.298727 1 2 encap 230 ------- 0 3.3 2.0 -1 45
+ 0.29875 3 1 encap 230 ------- 0 3.3 2.0 -1 54
- 0.29875 3 1 encap 230 ------- 0 3.3 2.0 -1 54
v 0.3 eval {set sim_annotation {0.29999999999999999 1 join-group 2147483648}}
r 0.302453 1 2 encap 230 ------- 0 3.3 2.0 -1 39
r 0.302477 3 1 encap 230 ------- 0 3.3 2.0 -1 48
+ 0.302477 1 2 encap 230 ------- 0 3.3 2.0 -1 48
- 0.302477 1 2 encap 230 ------- 0 3.3 2.0 -1 48
+ 0.3025 3 1 encap 230 ------- 0 3.3 2.0 -1 57
- 0.3025 3 1 encap 230 ------- 0 3.3 2.0 -1 57
r 0.306203 1 2 encap 230 ------- 0 3.3 2.0 -1 42
r 0.306227 3 1 encap 230 ------- 0 3.3 2.0 -1 51
+ 0.306227 1 2 encap 230 ------- 0 3.3 2.0 -1 51
- 0.306227 1 2 encap 230 ------- 0 3.3 2.0 -1 51
+ 0.30625 3 1 encap 230 ------- 0 3.3 2.0 -1 60
- 0.30625 3 1 encap 230 ------- 0 3.3 2.0 -1 60
r 0.309953 1 2 encap 230 ------- 0 3.3 2.0 -1 45
r 0.309977 3 1 encap 230 ------- 0 3.3 2.0 -1 54
+ 0.309977 1 2 encap 230 ------- 0 3.3 2.0 -1 54
- 0.309977 1 2 encap 230 ------- 0 3.3 2.0 -1 54
+ 0.31 3 1 encap 230 ------- 0 3.3 2.0 -1 63
- 0.31 3 1 encap 230 ------- 0 3.3 2.0 -1 63
r 0.313703 1 2 encap 230 ------- 0 3.3 2.0 -1 48
r 0.313727 3 1 encap 230 ------- 0 3.3 2.0 -1 57
+ 0.313727 1 2 encap 230 ------- 0 3.3 2.0 -1 57
- 0.313727 1 2 encap 230 ------- 0 3.3 2.0 -1 57
+ 0.31375 3 1 encap 230 ------- 0 3.3 2.0 -1 66
- 0.31375 3 1 encap 230 ------- 0 3.3 2.0 -1 66
r 0.317453 1 2 encap 230 ------- 0 3.3 2.0 -1 51
r 0.317477 3 1 encap 230 ------- 0 3.3 2.0 -1 60
+ 0.317477 1 2 encap 230 ------- 0 3.3 2.0 -1 60
- 0.317477 1 2 encap 230 ------- 0 3.3 2.0 -1 60
+ 0.3175 3 1 encap 230 ------- 0 3.3 2.0 -1 69
- 0.3175 3 1 encap 230 ------- 0 3.3 2.0 -1 69
r 0.321203 1 2 encap 230 ------- 0 3.3 2.0 -1 54
r 0.321227 3 1 encap 230 ------- 0 3.3 2.0 -1 63
+ 0.321227 1 2 encap 230 ------- 0 3.3 2.0 -1 63
- 0.321227 1 2 encap 230 ------- 0 3.3 2.0 -1 63
+ 0.32125 3 1 encap 230 ------- 0 3.3 2.0 -1 72
- 0.32125 3 1 encap 230 ------- 0 3.3 2.0 -1 72
r 0.324953 1 2 encap 230 ------- 0 3.3 2.0 -1 57
r 0.324977 3 1 encap 230 ------- 0 3.3 2.0 -1 66
+ 0.324977 1 2 encap 230 ------- 0 3.3 2.0 -1 66
- 0.324977 1 2 encap 230 ------- 0 3.3 2.0 -1 66
+ 0.325 3 1 encap 230 ------- 0 3.3 2.0 -1 75
- 0.325 3 1 encap 230 ------- 0 3.3 2.0 -1 75
r 0.328703 1 2 encap 230 ------- 0 3.3 2.0 -1 60
r 0.328727 3 1 encap 230 ------- 0 3.3 2.0 -1 69
+ 0.328727 1 2 encap 230 ------- 0 3.3 2.0 -1 69
- 0.328727 1 2 encap 230 ------- 0 3.3 2.0 -1 69
+ 0.32875 3 1 encap 230 ------- 0 3.3 2.0 -1 78
- 0.32875 3 1 encap 230 ------- 0 3.3 2.0 -1 78
r 0.332453 1 2 encap 230 ------- 0 3.3 2.0 -1 63
r 0.332477 3 1 encap 230 ------- 0 3.3 2.0 -1 72
+ 0.332477 1 2 encap 230 ------- 0 3.3 2.0 -1 72
- 0.332477 1 2 encap 230 ------- 0 3.3 2.0 -1 72
+ 0.3325 3 1 encap 230 ------- 0 3.3 2.0 -1 81
- 0.3325 3 1 encap 230 ------- 0 3.3 2.0 -1 81
r 0.336203 1 2 encap 230 ------- 0 3.3 2.0 -1 66
r 0.336227 3 1 encap 230 ------- 0 3.3 2.0 -1 75
+ 0.336227 1 2 encap 230 ------- 0 3.3 2.0 -1 75
- 0.336227 1 2 encap 230 ------- 0 3.3 2.0 -1 75
+ 0.33625 3 1 encap 230 ------- 0 3.3 2.0 -1 84
- 0.33625 3 1 encap 230 ------- 0 3.3 2.0 -1 84
r 0.339953 1 2 encap 230 ------- 0 3.3 2.0 -1 69
r 0.339977 3 1 encap 230 ------- 0 3.3 2.0 -1 78
+ 0.339977 1 2 encap 230 ------- 0 3.3 2.0 -1 78
- 0.339977 1 2 encap 230 ------- 0 3.3 2.0 -1 78
+ 0.34 3 1 encap 230 ------- 0 3.3 2.0 -1 87
- 0.34 3 1 encap 230 ------- 0 3.3 2.0 -1 87
r 0.343703 1 2 encap 230 ------- 0 3.3 2.0 -1 72
r 0.343727 3 1 encap 230 ------- 0 3.3 2.0 -1 81
+ 0.343727 1 2 encap 230 ------- 0 3.3 2.0 -1 81
- 0.343727 1 2 encap 230 ------- 0 3.3 2.0 -1 81
+ 0.34375 3 1 encap 230 ------- 0 3.3 2.0 -1 90
- 0.34375 3 1 encap 230 ------- 0 3.3 2.0 -1 90
r 0.347453 1 2 encap 230 ------- 0 3.3 2.0 -1 75
r 0.347477 3 1 encap 230 ------- 0 3.3 2.0 -1 84
+ 0.347477 1 2 encap 230 ------- 0 3.3 2.0 -1 84
- 0.347477 1 2 encap 230 ------- 0 3.3 2.0 -1 84
+ 0.3475 3 1 encap 230 ------- 0 3.3 2.0 -1 93
- 0.3475 3 1 encap 230 ------- 0 3.3 2.0 -1 93
r 0.351203 1 2 encap 230 ------- 0 3.3 2.0 -1 78
r 0.351227 3 1 encap 230 ------- 0 3.3 2.0 -1 87
+ 0.351227 1 2 encap 230 ------- 0 3.3 2.0 -1 87
- 0.351227 1 2 encap 230 ------- 0 3.3 2.0 -1 87
+ 0.35125 3 1 encap 230 ------- 0 3.3 2.0 -1 96
- 0.35125 3 1 encap 230 ------- 0 3.3 2.0 -1 96
r 0.354953 1 2 encap 230 ------- 0 3.3 2.0 -1 81
r 0.354977 3 1 encap 230 ------- 0 3.3 2.0 -1 90
+ 0.354977 1 2 encap 230 ------- 0 3.3 2.0 -1 90
- 0.354977 1 2 encap 230 ------- 0 3.3 2.0 -1 90
+ 0.355 3 1 encap 230 ------- 0 3.3 2.0 -1 99
- 0.355 3 1 encap 230 ------- 0 3.3 2.0 -1 99
r 0.358703 1 2 encap 230 ------- 0 3.3 2.0 -1 84
r 0.358727 3 1 encap 230 ------- 0 3.3 2.0 -1 93
+ 0.358727 1 2 encap 230 ------- 0 3.3 2.0 -1 93
- 0.358727 1 2 encap 230 ------- 0 3.3 2.0 -1 93
+ 0.35875 3 1 encap 230 ------- 0 3.3 2.0 -1 102
- 0.35875 3 1 encap 230 ------- 0 3.3 2.0 -1 102
r 0.362453 1 2 encap 230 ------- 0 3.3 2.0 -1 87
r 0.362477 3 1 encap 230 ------- 0 3.3 2.0 -1 96
+ 0.362477 1 2 encap 230 ------- 0 3.3 2.0 -1 96
- 0.362477 1 2 encap 230 ------- 0 3.3 2.0 -1 96
+ 0.3625 3 1 encap 230 ------- 0 3.3 2.0 -1 105
- 0.3625 3 1 encap 230 ------- 0 3.3 2.0 -1 105
r 0.366203 1 2 encap 230 ------- 0 3.3 2.0 -1 90
r 0.366227 3 1 encap 230 ------- 0 3.3 2.0 -1 99
+ 0.366227 1 2 encap 230 ------- 0 3.3 2.0 -1 99
- 0.366227 1 2 encap 230 ------- 0 3.3 2.0 -1 99
+ 0.36625 3 1 encap 230 ------- 0 3.3 2.0 -1 108
- 0.36625 3 1 encap 230 ------- 0 3.3 2.0 -1 108
r 0.369953 1 2 encap 230 ------- 0 3.3 2.0 -1 93
r 0.369977 3 1 encap 230 ------- 0 3.3 2.0 -1 102
+ 0.369977 1 2 encap 230 ------- 0 3.3 2.0 -1 102
- 0.369977 1 2 encap 230 ------- 0 3.3 2.0 -1 102
+ 0.37 3 1 encap 230 ------- 0 3.3 2.0 -1 111
- 0.37 3 1 encap 230 ------- 0 3.3 2.0 -1 111
r 0.373703 1 2 encap 230 ------- 0 3.3 2.0 -1 96
r 0.373727 3 1 encap 230 ------- 0 3.3 2.0 -1 105
+ 0.373727 1 2 encap 230 ------- 0 3.3 2.0 -1 105
- 0.373727 1 2 encap 230 ------- 0 3.3 2.0 -1 105
+ 0.37375 3 1 encap 230 ------- 0 3.3 2.0 -1 114
- 0.37375 3 1 encap 230 ------- 0 3.3 2.0 -1 114
r 0.377453 1 2 encap 230 ------- 0 3.3 2.0 -1 99
r 0.377477 3 1 encap 230 ------- 0 3.3 2.0 -1 108
+ 0.377477 1 2 encap 230 ------- 0 3.3 2.0 -1 108
- 0.377477 1 2 encap 230 ------- 0 3.3 2.0 -1 108
+ 0.3775 3 1 encap 230 ------- 0 3.3 2.0 -1 117
- 0.3775 3 1 encap 230 ------- 0 3.3 2.0 -1 117
r 0.381203 1 2 encap 230 ------- 0 3.3 2.0 -1 102
r 0.381227 3 1 encap 230 ------- 0 3.3 2.0 -1 111
+ 0.381227 1 2 encap 230 ------- 0 3.3 2.0 -1 111
- 0.381227 1 2 encap 230 ------- 0 3.3 2.0 -1 111
+ 0.38125 3 1 encap 230 ------- 0 3.3 2.0 -1 120
- 0.38125 3 1 encap 230 ------- 0 3.3 2.0 -1 120
r 0.384953 1 2 encap 230 ------- 0 3.3 2.0 -1 105
r 0.384977 3 1 encap 230 ------- 0 3.3 2.0 -1 114
+ 0.384977 1 2 encap 230 ------- 0 3.3 2.0 -1 114
- 0.384977 1 2 encap 230 ------- 0 3.3 2.0 -1 114
+ 0.385 3 1 encap 230 ------- 0 3.3 2.0 -1 123
- 0.385 3 1 encap 230 ------- 0 3.3 2.0 -1 123
r 0.388703 1 2 encap 230 ------- 0 3.3 2.0 -1 108
r 0.388727 3 1 encap 230 ------- 0 3.3 2.0 -1 117
+ 0.388727 1 2 encap 230 ------- 0 3.3 2.0 -1 117
- 0.388727 1 2 encap 230 ------- 0 3.3 2.0 -1 117
+ 0.38875 3 1 encap 230 ------- 0 3.3 2.0 -1 126
- 0.38875 3 1 encap 230 ------- 0 3.3 2.0 -1 126
r 0.392453 1 2 encap 230 ------- 0 3.3 2.0 -1 111
r 0.392477 3 1 encap 230 ------- 0 3.3 2.0 -1 120
+ 0.392477 1 2 encap 230 ------- 0 3.3 2.0 -1 120
- 0.392477 1 2 encap 230 ------- 0 3.3 2.0 -1 120
+ 0.3925 3 1 encap 230 ------- 0 3.3 2.0 -1 129
- 0.3925 3 1 encap 230 ------- 0 3.3 2.0 -1 129
r 0.396203 1 2 encap 230 ------- 0 3.3 2.0 -1 114
r 0.396227 3 1 encap 230 ------- 0 3.3 2.0 -1 123
+ 0.396227 1 2 encap 230 ------- 0 3.3 2.0 -1 123
- 0.396227 1 2 encap 230 ------- 0 3.3 2.0 -1 123
+ 0.39625 3 1 encap 230 ------- 0 3.3 2.0 -1 132
- 0.39625 3 1 encap 230 ------- 0 3.3 2.0 -1 132
r 0.399953 1 2 encap 230 ------- 0 3.3 2.0 -1 117
r 0.399977 3 1 encap 230 ------- 0 3.3 2.0 -1 126
+ 0.399977 1 2 encap 230 ------- 0 3.3 2.0 -1 126
- 0.399977 1 2 encap 230 ------- 0 3.3 2.0 -1 126
+ 0.4 3 1 encap 230 ------- 0 3.3 2.0 -1 135
- 0.4 3 1 encap 230 ------- 0 3.3 2.0 -1 135
v 0.4 eval {set sim_annotation {0.40000000000000002 0 join-group 2147483648}}
r 0.403703 1 2 encap 230 ------- 0 3.3 2.0 -1 120
r 0.403727 3 1 encap 230 ------- 0 3.3 2.0 -1 129
+ 0.403727 1 2 encap 230 ------- 0 3.3 2.0 -1 129
- 0.403727 1 2 encap 230 ------- 0 3.3 2.0 -1 129
+ 0.40375 3 1 encap 230 ------- 0 3.3 2.0 -1 138
- 0.40375 3 1 encap 230 ------- 0 3.3 2.0 -1 138
r 0.407453 1 2 encap 230 ------- 0 3.3 2.0 -1 123
r 0.407477 3 1 encap 230 ------- 0 3.3 2.0 -1 132
+ 0.407477 1 2 encap 230 ------- 0 3.3 2.0 -1 132
- 0.407477 1 2 encap 230 ------- 0 3.3 2.0 -1 132
+ 0.4075 3 1 encap 230 ------- 0 3.3 2.0 -1 141
- 0.4075 3 1 encap 230 ------- 0 3.3 2.0 -1 141
r 0.411203 1 2 encap 230 ------- 0 3.3 2.0 -1 126
r 0.411227 3 1 encap 230 ------- 0 3.3 2.0 -1 135
+ 0.411227 1 2 encap 230 ------- 0 3.3 2.0 -1 135
- 0.411227 1 2 encap 230 ------- 0 3.3 2.0 -1 135
+ 0.41125 3 1 encap 230 ------- 0 3.3 2.0 -1 144
- 0.41125 3 1 encap 230 ------- 0 3.3 2.0 -1 144
r 0.414953 1 2 encap 230 ------- 0 3.3 2.0 -1 129
r 0.414977 3 1 encap 230 ------- 0 3.3 2.0 -1 138
+ 0.414977 1 2 encap 230 ------- 0 3.3 2.0 -1 138
- 0.414977 1 2 encap 230 ------- 0 3.3 2.0 -1 138
+ 0.415 3 1 encap 230 ------- 0 3.3 2.0 -1 147
- 0.415 3 1 encap 230 ------- 0 3.3 2.0 -1 147
r 0.418703 1 2 encap 230 ------- 0 3.3 2.0 -1 132
r 0.418727 3 1 encap 230 ------- 0 3.3 2.0 -1 141
+ 0.418727 1 2 encap 230 ------- 0 3.3 2.0 -1 141
- 0.418727 1 2 encap 230 ------- 0 3.3 2.0 -1 141
+ 0.41875 3 1 encap 230 ------- 0 3.3 2.0 -1 150
- 0.41875 3 1 encap 230 ------- 0 3.3 2.0 -1 150
r 0.422453 1 2 encap 230 ------- 0 3.3 2.0 -1 135
r 0.422477 3 1 encap 230 ------- 0 3.3 2.0 -1 144
+ 0.422477 1 2 encap 230 ------- 0 3.3 2.0 -1 144
- 0.422477 1 2 encap 230 ------- 0 3.3 2.0 -1 144
+ 0.4225 3 1 encap 230 ------- 0 3.3 2.0 -1 153
- 0.4225 3 1 encap 230 ------- 0 3.3 2.0 -1 153
r 0.426203 1 2 encap 230 ------- 0 3.3 2.0 -1 138
r 0.426227 3 1 encap 230 ------- 0 3.3 2.0 -1 147
+ 0.426227 1 2 encap 230 ------- 0 3.3 2.0 -1 147
- 0.426227 1 2 encap 230 ------- 0 3.3 2.0 -1 147
+ 0.42625 3 1 encap 230 ------- 0 3.3 2.0 -1 156
- 0.42625 3 1 encap 230 ------- 0 3.3 2.0 -1 156
r 0.429953 1 2 encap 230 ------- 0 3.3 2.0 -1 141
r 0.429977 3 1 encap 230 ------- 0 3.3 2.0 -1 150
+ 0.429977 1 2 encap 230 ------- 0 3.3 2.0 -1 150
- 0.429977 1 2 encap 230 ------- 0 3.3 2.0 -1 150
+ 0.43 3 1 encap 230 ------- 0 3.3 2.0 -1 159
- 0.43 3 1 encap 230 ------- 0 3.3 2.0 -1 159
r 0.433703 1 2 encap 230 ------- 0 3.3 2.0 -1 144
r 0.433727 3 1 encap 230 ------- 0 3.3 2.0 -1 153
+ 0.433727 1 2 encap 230 ------- 0 3.3 2.0 -1 153
- 0.433727 1 2 encap 230 ------- 0 3.3 2.0 -1 153
+ 0.43375 3 1 encap 230 ------- 0 3.3 2.0 -1 162
- 0.43375 3 1 encap 230 ------- 0 3.3 2.0 -1 162
r 0.437453 1 2 encap 230 ------- 0 3.3 2.0 -1 147
r 0.437477 3 1 encap 230 ------- 0 3.3 2.0 -1 156
+ 0.437477 1 2 encap 230 ------- 0 3.3 2.0 -1 156
- 0.437477 1 2 encap 230 ------- 0 3.3 2.0 -1 156
+ 0.4375 3 1 encap 230 ------- 0 3.3 2.0 -1 165
- 0.4375 3 1 encap 230 ------- 0 3.3 2.0 -1 165
r 0.441203 1 2 encap 230 ------- 0 3.3 2.0 -1 150
r 0.441227 3 1 encap 230 ------- 0 3.3 2.0 -1 159
+ 0.441227 1 2 encap 230 ------- 0 3.3 2.0 -1 159
- 0.441227 1 2 encap 230 ------- 0 3.3 2.0 -1 159
+ 0.44125 3 1 encap 230 ------- 0 3.3 2.0 -1 168
- 0.44125 3 1 encap 230 ------- 0 3.3 2.0 -1 168
r 0.444953 1 2 encap 230 ------- 0 3.3 2.0 -1 153
r 0.444977 3 1 encap 230 ------- 0 3.3 2.0 -1 162
+ 0.444977 1 2 encap 230 ------- 0 3.3 2.0 -1 162
- 0.444977 1 2 encap 230 ------- 0 3.3 2.0 -1 162
+ 0.445 3 1 encap 230 ------- 0 3.3 2.0 -1 171
- 0.445 3 1 encap 230 ------- 0 3.3 2.0 -1 171
r 0.448703 1 2 encap 230 ------- 0 3.3 2.0 -1 156
r 0.448727 3 1 encap 230 ------- 0 3.3 2.0 -1 165
+ 0.448727 1 2 encap 230 ------- 0 3.3 2.0 -1 165
- 0.448727 1 2 encap 230 ------- 0 3.3 2.0 -1 165
+ 0.44875 3 1 encap 230 ------- 0 3.3 2.0 -1 174
- 0.44875 3 1 encap 230 ------- 0 3.3 2.0 -1 174
v 0.45 eval {set sim_annotation {2147483648 switch tree type}}
r 0.452453 1 2 encap 230 ------- 0 3.3 2.0 -1 159
r 0.452477 3 1 encap 230 ------- 0 3.3 2.0 -1 168
+ 0.452477 1 2 encap 230 ------- 0 3.3 2.0 -1 168
- 0.452477 1 2 encap 230 ------- 0 3.3 2.0 -1 168
+ 0.4525 3 1 encap 230 ------- 0 3.3 2.0 -1 177
- 0.4525 3 1 encap 230 ------- 0 3.3 2.0 -1 177
r 0.456203 1 2 encap 230 ------- 0 3.3 2.0 -1 162
r 0.456227 3 1 encap 230 ------- 0 3.3 2.0 -1 171
+ 0.456227 1 2 encap 230 ------- 0 3.3 2.0 -1 171
- 0.456227 1 2 encap 230 ------- 0 3.3 2.0 -1 171
+ 0.45625 3 1 encap 230 ------- 0 3.3 2.0 -1 180
- 0.45625 3 1 encap 230 ------- 0 3.3 2.0 -1 180
r 0.459953 1 2 encap 230 ------- 0 3.3 2.0 -1 165
r 0.459977 3 1 encap 230 ------- 0 3.3 2.0 -1 174
+ 0.459977 1 2 encap 230 ------- 0 3.3 2.0 -1 174
- 0.459977 1 2 encap 230 ------- 0 3.3 2.0 -1 174
+ 0.46 3 1 encap 230 ------- 0 3.3 2.0 -1 183
- 0.46 3 1 encap 230 ------- 0 3.3 2.0 -1 183
r 0.463703 1 2 encap 230 ------- 0 3.3 2.0 -1 168
r 0.463727 3 1 encap 230 ------- 0 3.3 2.0 -1 177
+ 0.463727 1 2 encap 230 ------- 0 3.3 2.0 -1 177
- 0.463727 1 2 encap 230 ------- 0 3.3 2.0 -1 177
+ 0.46375 3 1 encap 230 ------- 0 3.3 2.0 -1 186
- 0.46375 3 1 encap 230 ------- 0 3.3 2.0 -1 186
r 0.467453 1 2 encap 230 ------- 0 3.3 2.0 -1 171
r 0.467477 3 1 encap 230 ------- 0 3.3 2.0 -1 180
+ 0.467477 1 2 encap 230 ------- 0 3.3 2.0 -1 180
- 0.467477 1 2 encap 230 ------- 0 3.3 2.0 -1 180
+ 0.4675 3 1 encap 230 ------- 0 3.3 2.0 -1 189
- 0.4675 3 1 encap 230 ------- 0 3.3 2.0 -1 189
r 0.471203 1 2 encap 230 ------- 0 3.3 2.0 -1 174
r 0.471227 3 1 encap 230 ------- 0 3.3 2.0 -1 183
+ 0.471227 1 2 encap 230 ------- 0 3.3 2.0 -1 183
- 0.471227 1 2 encap 230 ------- 0 3.3 2.0 -1 183
+ 0.47125 3 1 encap 230 ------- 0 3.3 2.0 -1 192
- 0.47125 3 1 encap 230 ------- 0 3.3 2.0 -1 192
r 0.474953 1 2 encap 230 ------- 0 3.3 2.0 -1 177
r 0.474977 3 1 encap 230 ------- 0 3.3 2.0 -1 186
+ 0.474977 1 2 encap 230 ------- 0 3.3 2.0 -1 186
- 0.474977 1 2 encap 230 ------- 0 3.3 2.0 -1 186
+ 0.475 3 1 encap 230 ------- 0 3.3 2.0 -1 195
- 0.475 3 1 encap 230 ------- 0 3.3 2.0 -1 195
r 0.478703 1 2 encap 230 ------- 0 3.3 2.0 -1 180
r 0.478727 3 1 encap 230 ------- 0 3.3 2.0 -1 189
+ 0.478727 1 2 encap 230 ------- 0 3.3 2.0 -1 189
- 0.478727 1 2 encap 230 ------- 0 3.3 2.0 -1 189
+ 0.47875 3 1 encap 230 ------- 0 3.3 2.0 -1 198
- 0.47875 3 1 encap 230 ------- 0 3.3 2.0 -1 198
r 0.482453 1 2 encap 230 ------- 0 3.3 2.0 -1 183
r 0.482477 3 1 encap 230 ------- 0 3.3 2.0 -1 192
+ 0.482477 1 2 encap 230 ------- 0 3.3 2.0 -1 192
- 0.482477 1 2 encap 230 ------- 0 3.3 2.0 -1 192
+ 0.4825 3 1 encap 230 ------- 0 3.3 2.0 -1 201
- 0.4825 3 1 encap 230 ------- 0 3.3 2.0 -1 201
r 0.486203 1 2 encap 230 ------- 0 3.3 2.0 -1 186
r 0.486227 3 1 encap 230 ------- 0 3.3 2.0 -1 195
+ 0.486227 1 2 encap 230 ------- 0 3.3 2.0 -1 195
- 0.486227 1 2 encap 230 ------- 0 3.3 2.0 -1 195
+ 0.48625 3 1 encap 230 ------- 0 3.3 2.0 -1 204
- 0.48625 3 1 encap 230 ------- 0 3.3 2.0 -1 204
r 0.489953 1 2 encap 230 ------- 0 3.3 2.0 -1 189
r 0.489977 3 1 encap 230 ------- 0 3.3 2.0 -1 198
+ 0.489977 1 2 encap 230 ------- 0 3.3 2.0 -1 198
- 0.489977 1 2 encap 230 ------- 0 3.3 2.0 -1 198
+ 0.49 3 1 encap 230 ------- 0 3.3 2.0 -1 207
- 0.49 3 1 encap 230 ------- 0 3.3 2.0 -1 207
r 0.493703 1 2 encap 230 ------- 0 3.3 2.0 -1 192
r 0.493727 3 1 encap 230 ------- 0 3.3 2.0 -1 201
+ 0.493727 1 2 encap 230 ------- 0 3.3 2.0 -1 201
- 0.493727 1 2 encap 230 ------- 0 3.3 2.0 -1 201
+ 0.49375 3 1 encap 230 ------- 0 3.3 2.0 -1 210
- 0.49375 3 1 encap 230 ------- 0 3.3 2.0 -1 210
r 0.497453 1 2 encap 230 ------- 0 3.3 2.0 -1 195
r 0.497477 3 1 encap 230 ------- 0 3.3 2.0 -1 204
+ 0.497477 1 2 encap 230 ------- 0 3.3 2.0 -1 204
- 0.497477 1 2 encap 230 ------- 0 3.3 2.0 -1 204
+ 0.4975 3 1 encap 230 ------- 0 3.3 2.0 -1 213
- 0.4975 3 1 encap 230 ------- 0 3.3 2.0 -1 213
v 0.5 eval {set sim_annotation {0.5 3 join-group 2147483648}}
r 0.501203 1 2 encap 230 ------- 0 3.3 2.0 -1 198
r 0.501227 3 1 encap 230 ------- 0 3.3 2.0 -1 207
+ 0.501227 1 2 encap 230 ------- 0 3.3 2.0 -1 207
- 0.501227 1 2 encap 230 ------- 0 3.3 2.0 -1 207
+ 0.50125 3 1 encap 230 ------- 0 3.3 2.0 -1 216
- 0.50125 3 1 encap 230 ------- 0 3.3 2.0 -1 216
r 0.504953 1 2 encap 230 ------- 0 3.3 2.0 -1 201
r 0.504977 3 1 encap 230 ------- 0 3.3 2.0 -1 210
+ 0.504977 1 2 encap 230 ------- 0 3.3 2.0 -1 210
- 0.504977 1 2 encap 230 ------- 0 3.3 2.0 -1 210
+ 0.505 3 1 encap 230 ------- 0 3.3 2.0 -1 219
- 0.505 3 1 encap 230 ------- 0 3.3 2.0 -1 219
r 0.508703 1 2 encap 230 ------- 0 3.3 2.0 -1 204
r 0.508727 3 1 encap 230 ------- 0 3.3 2.0 -1 213
+ 0.508727 1 2 encap 230 ------- 0 3.3 2.0 -1 213
- 0.508727 1 2 encap 230 ------- 0 3.3 2.0 -1 213
+ 0.50875 3 1 encap 230 ------- 0 3.3 2.0 -1 222
- 0.50875 3 1 encap 230 ------- 0 3.3 2.0 -1 222
r 0.512453 1 2 encap 230 ------- 0 3.3 2.0 -1 207
r 0.512477 3 1 encap 230 ------- 0 3.3 2.0 -1 216
+ 0.512477 1 2 encap 230 ------- 0 3.3 2.0 -1 216
- 0.512477 1 2 encap 230 ------- 0 3.3 2.0 -1 216
+ 0.5125 3 1 encap 230 ------- 0 3.3 2.0 -1 225
- 0.5125 3 1 encap 230 ------- 0 3.3 2.0 -1 225
r 0.516203 1 2 encap 230 ------- 0 3.3 2.0 -1 210
r 0.516227 3 1 encap 230 ------- 0 3.3 2.0 -1 219
+ 0.516227 1 2 encap 230 ------- 0 3.3 2.0 -1 219
- 0.516227 1 2 encap 230 ------- 0 3.3 2.0 -1 219
+ 0.51625 3 1 encap 230 ------- 0 3.3 2.0 -1 228
- 0.51625 3 1 encap 230 ------- 0 3.3 2.0 -1 228
r 0.519953 1 2 encap 230 ------- 0 3.3 2.0 -1 213
r 0.519977 3 1 encap 230 ------- 0 3.3 2.0 -1 222
+ 0.519977 1 2 encap 230 ------- 0 3.3 2.0 -1 222
- 0.519977 1 2 encap 230 ------- 0 3.3 2.0 -1 222
+ 0.52 3 1 encap 230 ------- 0 3.3 2.0 -1 231
- 0.52 3 1 encap 230 ------- 0 3.3 2.0 -1 231
r 0.523703 1 2 encap 230 ------- 0 3.3 2.0 -1 216
r 0.523727 3 1 encap 230 ------- 0 3.3 2.0 -1 225
+ 0.523727 1 2 encap 230 ------- 0 3.3 2.0 -1 225
- 0.523727 1 2 encap 230 ------- 0 3.3 2.0 -1 225
+ 0.52375 3 1 encap 230 ------- 0 3.3 2.0 -1 234
- 0.52375 3 1 encap 230 ------- 0 3.3 2.0 -1 234
r 0.527453 1 2 encap 230 ------- 0 3.3 2.0 -1 219
r 0.527477 3 1 encap 230 ------- 0 3.3 2.0 -1 228
+ 0.527477 1 2 encap 230 ------- 0 3.3 2.0 -1 228
- 0.527477 1 2 encap 230 ------- 0 3.3 2.0 -1 228
+ 0.5275 3 1 encap 230 ------- 0 3.3 2.0 -1 237
- 0.5275 3 1 encap 230 ------- 0 3.3 2.0 -1 237
r 0.531203 1 2 encap 230 ------- 0 3.3 2.0 -1 222
r 0.531227 3 1 encap 230 ------- 0 3.3 2.0 -1 231
+ 0.531227 1 2 encap 230 ------- 0 3.3 2.0 -1 231
- 0.531227 1 2 encap 230 ------- 0 3.3 2.0 -1 231
+ 0.53125 3 1 encap 230 ------- 0 3.3 2.0 -1 240
- 0.53125 3 1 encap 230 ------- 0 3.3 2.0 -1 240
r 0.534953 1 2 encap 230 ------- 0 3.3 2.0 -1 225
r 0.534977 3 1 encap 230 ------- 0 3.3 2.0 -1 234
+ 0.534977 1 2 encap 230 ------- 0 3.3 2.0 -1 234
- 0.534977 1 2 encap 230 ------- 0 3.3 2.0 -1 234
+ 0.535 3 1 encap 230 ------- 0 3.3 2.0 -1 243
- 0.535 3 1 encap 230 ------- 0 3.3 2.0 -1 243
r 0.538703 1 2 encap 230 ------- 0 3.3 2.0 -1 228
r 0.538727 3 1 encap 230 ------- 0 3.3 2.0 -1 237
+ 0.538727 1 2 encap 230 ------- 0 3.3 2.0 -1 237
- 0.538727 1 2 encap 230 ------- 0 3.3 2.0 -1 237
+ 0.53875 3 1 encap 230 ------- 0 3.3 2.0 -1 246
- 0.53875 3 1 encap 230 ------- 0 3.3 2.0 -1 246
r 0.542453 1 2 encap 230 ------- 0 3.3 2.0 -1 231
r 0.542477 3 1 encap 230 ------- 0 3.3 2.0 -1 240
+ 0.542477 1 2 encap 230 ------- 0 3.3 2.0 -1 240
- 0.542477 1 2 encap 230 ------- 0 3.3 2.0 -1 240
+ 0.5425 3 1 encap 230 ------- 0 3.3 2.0 -1 249
- 0.5425 3 1 encap 230 ------- 0 3.3 2.0 -1 249
r 0.546203 1 2 encap 230 ------- 0 3.3 2.0 -1 234
r 0.546227 3 1 encap 230 ------- 0 3.3 2.0 -1 243
+ 0.546227 1 2 encap 230 ------- 0 3.3 2.0 -1 243
- 0.546227 1 2 encap 230 ------- 0 3.3 2.0 -1 243
+ 0.54625 3 1 encap 230 ------- 0 3.3 2.0 -1 252
- 0.54625 3 1 encap 230 ------- 0 3.3 2.0 -1 252
r 0.549953 1 2 encap 230 ------- 0 3.3 2.0 -1 237
r 0.549977 3 1 encap 230 ------- 0 3.3 2.0 -1 246
+ 0.549977 1 2 encap 230 ------- 0 3.3 2.0 -1 246
- 0.549977 1 2 encap 230 ------- 0 3.3 2.0 -1 246
+ 0.55 3 1 encap 230 ------- 0 3.3 2.0 -1 255
- 0.55 3 1 encap 230 ------- 0 3.3 2.0 -1 255
r 0.553703 1 2 encap 230 ------- 0 3.3 2.0 -1 240
r 0.553727 3 1 encap 230 ------- 0 3.3 2.0 -1 249
+ 0.553727 1 2 encap 230 ------- 0 3.3 2.0 -1 249
- 0.553727 1 2 encap 230 ------- 0 3.3 2.0 -1 249
+ 0.55375 3 1 encap 230 ------- 0 3.3 2.0 -1 258
- 0.55375 3 1 encap 230 ------- 0 3.3 2.0 -1 258
r 0.557453 1 2 encap 230 ------- 0 3.3 2.0 -1 243
r 0.557477 3 1 encap 230 ------- 0 3.3 2.0 -1 252
+ 0.557477 1 2 encap 230 ------- 0 3.3 2.0 -1 252
- 0.557477 1 2 encap 230 ------- 0 3.3 2.0 -1 252
+ 0.5575 3 1 encap 230 ------- 0 3.3 2.0 -1 261
- 0.5575 3 1 encap 230 ------- 0 3.3 2.0 -1 261
r 0.561203 1 2 encap 230 ------- 0 3.3 2.0 -1 246
r 0.561227 3 1 encap 230 ------- 0 3.3 2.0 -1 255
+ 0.561227 1 2 encap 230 ------- 0 3.3 2.0 -1 255
- 0.561227 1 2 encap 230 ------- 0 3.3 2.0 -1 255
+ 0.56125 3 1 encap 230 ------- 0 3.3 2.0 -1 264
- 0.56125 3 1 encap 230 ------- 0 3.3 2.0 -1 264
r 0.564953 1 2 encap 230 ------- 0 3.3 2.0 -1 249
r 0.564977 3 1 encap 230 ------- 0 3.3 2.0 -1 258
+ 0.564977 1 2 encap 230 ------- 0 3.3 2.0 -1 258
- 0.564977 1 2 encap 230 ------- 0 3.3 2.0 -1 258
+ 0.565 3 1 encap 230 ------- 0 3.3 2.0 -1 267
- 0.565 3 1 encap 230 ------- 0 3.3 2.0 -1 267
r 0.568703 1 2 encap 230 ------- 0 3.3 2.0 -1 252
r 0.568727 3 1 encap 230 ------- 0 3.3 2.0 -1 261
+ 0.568727 1 2 encap 230 ------- 0 3.3 2.0 -1 261
- 0.568727 1 2 encap 230 ------- 0 3.3 2.0 -1 261
+ 0.56875 3 1 encap 230 ------- 0 3.3 2.0 -1 270
- 0.56875 3 1 encap 230 ------- 0 3.3 2.0 -1 270
r 0.572453 1 2 encap 230 ------- 0 3.3 2.0 -1 255
r 0.572477 3 1 encap 230 ------- 0 3.3 2.0 -1 264
+ 0.572477 1 2 encap 230 ------- 0 3.3 2.0 -1 264
- 0.572477 1 2 encap 230 ------- 0 3.3 2.0 -1 264
+ 0.5725 3 1 encap 230 ------- 0 3.3 2.0 -1 273
- 0.5725 3 1 encap 230 ------- 0 3.3 2.0 -1 273
r 0.576203 1 2 encap 230 ------- 0 3.3 2.0 -1 258
r 0.576227 3 1 encap 230 ------- 0 3.3 2.0 -1 267
+ 0.576227 1 2 encap 230 ------- 0 3.3 2.0 -1 267
- 0.576227 1 2 encap 230 ------- 0 3.3 2.0 -1 267
+ 0.57625 3 1 encap 230 ------- 0 3.3 2.0 -1 276
- 0.57625 3 1 encap 230 ------- 0 3.3 2.0 -1 276
r 0.579953 1 2 encap 230 ------- 0 3.3 2.0 -1 261
r 0.579977 3 1 encap 230 ------- 0 3.3 2.0 -1 270
+ 0.579977 1 2 encap 230 ------- 0 3.3 2.0 -1 270
- 0.579977 1 2 encap 230 ------- 0 3.3 2.0 -1 270
+ 0.58 3 1 encap 230 ------- 0 3.3 2.0 -1 279
- 0.58 3 1 encap 230 ------- 0 3.3 2.0 -1 279
r 0.583703 1 2 encap 230 ------- 0 3.3 2.0 -1 264
r 0.583727 3 1 encap 230 ------- 0 3.3 2.0 -1 273
+ 0.583727 1 2 encap 230 ------- 0 3.3 2.0 -1 273
- 0.583727 1 2 encap 230 ------- 0 3.3 2.0 -1 273
+ 0.58375 3 1 encap 230 ------- 0 3.3 2.0 -1 282
- 0.58375 3 1 encap 230 ------- 0 3.3 2.0 -1 282
r 0.587453 1 2 encap 230 ------- 0 3.3 2.0 -1 267
r 0.587477 3 1 encap 230 ------- 0 3.3 2.0 -1 276
+ 0.587477 1 2 encap 230 ------- 0 3.3 2.0 -1 276
- 0.587477 1 2 encap 230 ------- 0 3.3 2.0 -1 276
+ 0.5875 3 1 encap 230 ------- 0 3.3 2.0 -1 285
- 0.5875 3 1 encap 230 ------- 0 3.3 2.0 -1 285
r 0.591203 1 2 encap 230 ------- 0 3.3 2.0 -1 270
r 0.591227 3 1 encap 230 ------- 0 3.3 2.0 -1 279
+ 0.591227 1 2 encap 230 ------- 0 3.3 2.0 -1 279
- 0.591227 1 2 encap 230 ------- 0 3.3 2.0 -1 279
+ 0.59125 3 1 encap 230 ------- 0 3.3 2.0 -1 288
- 0.59125 3 1 encap 230 ------- 0 3.3 2.0 -1 288
r 0.594953 1 2 encap 230 ------- 0 3.3 2.0 -1 273
r 0.594977 3 1 encap 230 ------- 0 3.3 2.0 -1 282
+ 0.594977 1 2 encap 230 ------- 0 3.3 2.0 -1 282
- 0.594977 1 2 encap 230 ------- 0 3.3 2.0 -1 282
+ 0.595 3 1 encap 230 ------- 0 3.3 2.0 -1 291
- 0.595 3 1 encap 230 ------- 0 3.3 2.0 -1 291
r 0.598703 1 2 encap 230 ------- 0 3.3 2.0 -1 276
r 0.598727 3 1 encap 230 ------- 0 3.3 2.0 -1 285
+ 0.598727 1 2 encap 230 ------- 0 3.3 2.0 -1 285
- 0.598727 1 2 encap 230 ------- 0 3.3 2.0 -1 285
+ 0.59875 3 1 encap 230 ------- 0 3.3 2.0 -1 294
- 0.59875 3 1 encap 230 ------- 0 3.3 2.0 -1 294
r 0.602453 1 2 encap 230 ------- 0 3.3 2.0 -1 279
r 0.602477 3 1 encap 230 ------- 0 3.3 2.0 -1 288
+ 0.602477 1 2 encap 230 ------- 0 3.3 2.0 -1 288
- 0.602477 1 2 encap 230 ------- 0 3.3 2.0 -1 288
+ 0.6025 3 1 encap 230 ------- 0 3.3 2.0 -1 297
- 0.6025 3 1 encap 230 ------- 0 3.3 2.0 -1 297
r 0.606203 1 2 encap 230 ------- 0 3.3 2.0 -1 282
r 0.606227 3 1 encap 230 ------- 0 3.3 2.0 -1 291
+ 0.606227 1 2 encap 230 ------- 0 3.3 2.0 -1 291
- 0.606227 1 2 encap 230 ------- 0 3.3 2.0 -1 291
+ 0.60625 3 1 encap 230 ------- 0 3.3 2.0 -1 300
- 0.60625 3 1 encap 230 ------- 0 3.3 2.0 -1 300
r 0.609953 1 2 encap 230 ------- 0 3.3 2.0 -1 285
r 0.609977 3 1 encap 230 ------- 0 3.3 2.0 -1 294
+ 0.609977 1 2 encap 230 ------- 0 3.3 2.0 -1 294
- 0.609977 1 2 encap 230 ------- 0 3.3 2.0 -1 294
+ 0.61 3 1 encap 230 ------- 0 3.3 2.0 -1 303
- 0.61 3 1 encap 230 ------- 0 3.3 2.0 -1 303
r 0.613703 1 2 encap 230 ------- 0 3.3 2.0 -1 288
r 0.613727 3 1 encap 230 ------- 0 3.3 2.0 -1 297
+ 0.613727 1 2 encap 230 ------- 0 3.3 2.0 -1 297
- 0.613727 1 2 encap 230 ------- 0 3.3 2.0 -1 297
+ 0.61375 3 1 encap 230 ------- 0 3.3 2.0 -1 306
- 0.61375 3 1 encap 230 ------- 0 3.3 2.0 -1 306
r 0.617453 1 2 encap 230 ------- 0 3.3 2.0 -1 291
r 0.617477 3 1 encap 230 ------- 0 3.3 2.0 -1 300
+ 0.617477 1 2 encap 230 ------- 0 3.3 2.0 -1 300
- 0.617477 1 2 encap 230 ------- 0 3.3 2.0 -1 300
+ 0.6175 3 1 encap 230 ------- 0 3.3 2.0 -1 309
- 0.6175 3 1 encap 230 ------- 0 3.3 2.0 -1 309
r 0.621203 1 2 encap 230 ------- 0 3.3 2.0 -1 294
r 0.621227 3 1 encap 230 ------- 0 3.3 2.0 -1 303
+ 0.621227 1 2 encap 230 ------- 0 3.3 2.0 -1 303
- 0.621227 1 2 encap 230 ------- 0 3.3 2.0 -1 303
+ 0.62125 3 1 encap 230 ------- 0 3.3 2.0 -1 312
- 0.62125 3 1 encap 230 ------- 0 3.3 2.0 -1 312
r 0.624953 1 2 encap 230 ------- 0 3.3 2.0 -1 297
r 0.624977 3 1 encap 230 ------- 0 3.3 2.0 -1 306
+ 0.624977 1 2 encap 230 ------- 0 3.3 2.0 -1 306
- 0.624977 1 2 encap 230 ------- 0 3.3 2.0 -1 306
+ 0.625 3 1 encap 230 ------- 0 3.3 2.0 -1 315
- 0.625 3 1 encap 230 ------- 0 3.3 2.0 -1 315
r 0.628703 1 2 encap 230 ------- 0 3.3 2.0 -1 300
r 0.628727 3 1 encap 230 ------- 0 3.3 2.0 -1 309
+ 0.628727 1 2 encap 230 ------- 0 3.3 2.0 -1 309
- 0.628727 1 2 encap 230 ------- 0 3.3 2.0 -1 309
+ 0.62875 3 1 encap 230 ------- 0 3.3 2.0 -1 318
- 0.62875 3 1 encap 230 ------- 0 3.3 2.0 -1 318
r 0.632453 1 2 encap 230 ------- 0 3.3 2.0 -1 303
r 0.632477 3 1 encap 230 ------- 0 3.3 2.0 -1 312
+ 0.632477 1 2 encap 230 ------- 0 3.3 2.0 -1 312
- 0.632477 1 2 encap 230 ------- 0 3.3 2.0 -1 312
+ 0.6325 3 1 encap 230 ------- 0 3.3 2.0 -1 321
- 0.6325 3 1 encap 230 ------- 0 3.3 2.0 -1 321
r 0.636203 1 2 encap 230 ------- 0 3.3 2.0 -1 306
r 0.636227 3 1 encap 230 ------- 0 3.3 2.0 -1 315