+ 1 1 0 cbr 210 ------- 0 1.1 -2147483648.0 0 0
- 1 1 0 cbr 210 ------- 0 1.1 -2147483648.0 0 0
+ 1 1 2 cbr 210 ------- 0 1.1 -2147483648.0 0 0
- 1 1 2 cbr 210 ------- 0 1.1 -2147483648.0 0 0
+ 1 1 3 cbr 210 ------- 0 1.1 -2147483648.0 0 0
- 1 1 3 cbr 210 ------- 0 1.1 -2147483648.0 0 0
+ 1.00375 1 0 cbr 210 ------- 0 1.1 -2147483648.0 1 1
- 1.00375 1 0 cbr 210 ------- 0 1.1 -2147483648.0 1 1
+ 1.00375 1 2 cbr 210 ------- 0 1.1 -2147483648.0 1 1
- 1.00375 1 2 cbr 210 ------- 0 1.1 -2147483648.0 1 1
+ 1.00375 1 3 cbr 210 ------- 0 1.1 -2147483648.0 1 1
- 1.00375 1 3 cbr 210 ------- 0 1.1 -2147483648.0 1 1
+ 1.0075 1 0 cbr 210 ------- 0 1.1 -2147483648.0 2 2
- 1.0075 1 0 cbr 210 ------- 0 1.1 -2147483648.0 2 2
+ 1.0075 1 2 cbr 210 ------- 0 1.1 -2147483648.0 2 2
- 1.0075 1 2 cbr 210 ------- 0 1.1 -2147483648.0 2 2
+ 1.0075 1 3 cbr 210 ------- 0 1.1 -2147483648.0 2 2
- 1.0075 1 3 cbr 210 ------- 0 1.1 -2147483648.0 2 2
r 1.01112 1 0 cbr 210 ------- 0 1.1 -2147483648.0 0 0
+ 1.01112 0 1 prune 80 ------- 30 0.0 1.0 -1 3
- 1.01112 0 1 prune 80 ------- 30 0.0 1.0 -1 3
r 1.01112 1 2 cbr 210 ------- 0 1.1 -2147483648.0 0 0
+ 1.01112 2 1 prune 80 ------- 30 2.0 1.0 -1 4
- 1.01112 2 1 prune 80 ------- 30 2.0 1.0 -1 4
r 1.01112 1 3 cbr 210 ------- 0 1.1 -2147483648.0 0 0
+ 1.01112 3 1 prune 80 ------- 30 3.0 1.0 -1 5
- 1.01112 3 1 prune 80 ------- 30 3.0 1.0 -1 5
+ 1.01125 1 0 cbr 210 ------- 0 1.1 -2147483648.0 3 6
- 1.01125 1 0 cbr 210 ------- 0 1.1 -2147483648.0 3 6
+ 1.01125 1 2 cbr 210 ------- 0 1.1 -2147483648.0 3 6
- 1.01125 1 2 cbr 210 ------- 0 1.1 -2147483648.0 3 6
+ 1.01125 1 3 cbr 210 ------- 0 1.1 -2147483648.0 3 6
- 1.01125 1 3 cbr 210 ------- 0 1.1 -2147483648.0 3 6
r 1.01487 1 0 cbr 210 ------- 0 1.1 -2147483648.0 1 1
+ 1.01487 0 1 prune 80 ------- 30 0.0 1.0 -1 7
- 1.01487 0 1 prune 80 ------- 30 0.0 1.0 -1 7
r 1.01487 1 2 cbr 210 ------- 0 1.1 -2147483648.0 1 1
+ 1.01487 2 1 prune 80 ------- 30 2.0 1.0 -1 8
- 1.01487 2 1 prune 80 ------- 30 2.0 1.0 -1 8
r 1.01487 1 3 cbr 210 ------- 0 1.1 -2147483648.0 1 1
+ 1.01487 3 1 prune 80 ------- 30 3.0 1.0 -1 9
- 1.01487 3 1 prune 80 ------- 30 3.0 1.0 -1 9
+ 1.015 1 0 cbr 210 ------- 0 1.1 -2147483648.0 4 10
- 1.015 1 0 cbr 210 ------- 0 1.1 -2147483648.0 4 10
+ 1.015 1 2 cbr 210 ------- 0 1.1 -2147483648.0 4 10
- 1.015 1 2 cbr 210 ------- 0 1.1 -2147483648.0 4 10
+ 1.015 1 3 cbr 210 ------- 0 1.1 -2147483648.0 4 10
- 1.015 1 3 cbr 210 ------- 0 1.1 -2147483648.0 4 10
r 1.01862 1 0 cbr 210 ------- 0 1.1 -2147483648.0 2 2
+ 1.01862 0 1 prune 80 ------- 30 0.0 1.0 -1 11
- 1.01862 0 1 prune 80 ------- 30 0.0 1.0 -1 11
r 1.01862 1 2 cbr 210 ------- 0 1.1 -2147483648.0 2 2
+ 1.01862 2 1 prune 80 ------- 30 2.0 1.0 -1 12
- 1.01862 2 1 prune 80 ------- 30 2.0 1.0 -1 12
r 1.01862 1 3 cbr 210 ------- 0 1.1 -2147483648.0 2 2
+ 1.01862 3 1 prune 80 ------- 30 3.0 1.0 -1 13
- 1.01862 3 1 prune 80 ------- 30 3.0 1.0 -1 13
+ 1.01875 1 0 cbr 210 ------- 0 1.1 -2147483648.0 5 14
- 1.01875 1 0 cbr 210 ------- 0 1.1 -2147483648.0 5 14
+ 1.01875 1 2 cbr 210 ------- 0 1.1 -2147483648.0 5 14
- 1.01875 1 2 cbr 210 ------- 0 1.1 -2147483648.0 5 14
+ 1.01875 1 3 cbr 210 ------- 0 1.1 -2147483648.0 5 14
- 1.01875 1 3 cbr 210 ------- 0 1.1 -2147483648.0 5 14
r 1.021547 0 1 prune 80 ------- 30 0.0 1.0 -1 3
r 1.021547 2 1 prune 80 ------- 30 2.0 1.0 -1 4
r 1.021547 3 1 prune 80 ------- 30 3.0 1.0 -1 5
r 1.02237 1 0 cbr 210 ------- 0 1.1 -2147483648.0 3 6
+ 1.02237 0 1 prune 80 ------- 30 0.0 1.0 -1 15
- 1.02237 0 1 prune 80 ------- 30 0.0 1.0 -1 15
r 1.02237 1 2 cbr 210 ------- 0 1.1 -2147483648.0 3 6
+ 1.02237 2 1 prune 80 ------- 30 2.0 1.0 -1 16
- 1.02237 2 1 prune 80 ------- 30 2.0 1.0 -1 16
r 1.02237 1 3 cbr 210 ------- 0 1.1 -2147483648.0 3 6
+ 1.02237 3 1 prune 80 ------- 30 3.0 1.0 -1 17
- 1.02237 3 1 prune 80 ------- 30 3.0 1.0 -1 17
+ 1.0225 1 0 cbr 210 ------- 0 1.1 -2147483648.0 6 18
- 1.0225 1 0 cbr 210 ------- 0 1.1 -2147483648.0 6 18
+ 1.0225 1 2 cbr 210 ------- 0 1.1 -2147483648.0 6 18
- 1.0225 1 2 cbr 210 ------- 0 1.1 -2147483648.0 6 18
+ 1.0225 1 3 cbr 210 ------- 0 1.1 -2147483648.0 6 18
- 1.0225 1 3 cbr 210 ------- 0 1.1 -2147483648.0 6 18
r 1.025297 0 1 prune 80 ------- 30 0.0 1.0 -1 7
r 1.025297 2 1 prune 80 ------- 30 2.0 1.0 -1 8
r 1.025297 3 1 prune 80 ------- 30 3.0 1.0 -1 9
r 1.02612 1 0 cbr 210 ------- 0 1.1 -2147483648.0 4 10
+ 1.02612 0 1 prune 80 ------- 30 0.0 1.0 -1 19
- 1.02612 0 1 prune 80 ------- 30 0.0 1.0 -1 19
r 1.02612 1 2 cbr 210 ------- 0 1.1 -2147483648.0 4 10
+ 1.02612 2 1 prune 80 ------- 30 2.0 1.0 -1 20
- 1.02612 2 1 prune 80 ------- 30 2.0 1.0 -1 20
r 1.02612 1 3 cbr 210 ------- 0 1.1 -2147483648.0 4 10
+ 1.02612 3 1 prune 80 ------- 30 3.0 1.0 -1 21
- 1.02612 3 1 prune 80 ------- 30 3.0 1.0 -1 21
+ 1.02625 1 0 cbr 210 ------- 0 1.1 -2147483648.0 7 22
- 1.02625 1 0 cbr 210 ------- 0 1.1 -2147483648.0 7 22
+ 1.02625 1 2 cbr 210 ------- 0 1.1 -2147483648.0 7 22
- 1.02625 1 2 cbr 210 ------- 0 1.1 -2147483648.0 7 22
+ 1.02625 1 3 cbr 210 ------- 0 1.1 -2147483648.0 7 22
- 1.02625 1 3 cbr 210 ------- 0 1.1 -2147483648.0 7 22
r 1.029047 0 1 prune 80 ------- 30 0.0 1.0 -1 11
r 1.029047 2 1 prune 80 ------- 30 2.0 1.0 -1 12
r 1.029047 3 1 prune 80 ------- 30 3.0 1.0 -1 13
r 1.02987 1 0 cbr 210 ------- 0 1.1 -2147483648.0 5 14
+ 1.02987 0 1 prune 80 ------- 30 0.0 1.0 -1 23
- 1.02987 0 1 prune 80 ------- 30 0.0 1.0 -1 23
r 1.02987 1 2 cbr 210 ------- 0 1.1 -2147483648.0 5 14
+ 1.02987 2 1 prune 80 ------- 30 2.0 1.0 -1 24
- 1.02987 2 1 prune 80 ------- 30 2.0 1.0 -1 24
r 1.02987 1 3 cbr 210 ------- 0 1.1 -2147483648.0 5 14
+ 1.02987 3 1 prune 80 ------- 30 3.0 1.0 -1 25
- 1.02987 3 1 prune 80 ------- 30 3.0 1.0 -1 25
+ 1.03 1 0 cbr 210 ------- 0 1.1 -2147483648.0 8 26
- 1.03 1 0 cbr 210 ------- 0 1.1 -2147483648.0 8 26
+ 1.03 1 2 cbr 210 ------- 0 1.1 -2147483648.0 8 26
- 1.03 1 2 cbr 210 ------- 0 1.1 -2147483648.0 8 26
+ 1.03 1 3 cbr 210 ------- 0 1.1 -2147483648.0 8 26
- 1.03 1 3 cbr 210 ------- 0 1.1 -2147483648.0 8 26
r 1.032797 0 1 prune 80 ------- 30 0.0 1.0 -1 15
r 1.032797 2 1 prune 80 ------- 30 2.0 1.0 -1 16
r 1.032797 3 1 prune 80 ------- 30 3.0 1.0 -1 17
r 1.03362 1 0 cbr 210 ------- 0 1.1 -2147483648.0 6 18
+ 1.03362 0 1 prune 80 ------- 30 0.0 1.0 -1 27
- 1.03362 0 1 prune 80 ------- 30 0.0 1.0 -1 27
r 1.03362 1 2 cbr 210 ------- 0 1.1 -2147483648.0 6 18
+ 1.03362 2 1 prune 80 ------- 30 2.0 1.0 -1 28
- 1.03362 2 1 prune 80 ------- 30 2.0 1.0 -1 28
r 1.03362 1 3 cbr 210 ------- 0 1.1 -2147483648.0 6 18
+ 1.03362 3 1 prune 80 ------- 30 3.0 1.0 -1 29
- 1.03362 3 1 prune 80 ------- 30 3.0 1.0 -1 29
+ 1.03375 1 0 cbr 210 ------- 0 1.1 -2147483648.0 9 30
- 1.03375 1 0 cbr 210 ------- 0 1.1 -2147483648.0 9 30
+ 1.03375 1 2 cbr 210 ------- 0 1.1 -2147483648.0 9 30
- 1.03375 1 2 cbr 210 ------- 0 1.1 -2147483648.0 9 30
+ 1.03375 1 3 cbr 210 ------- 0 1.1 -2147483648.0 9 30
- 1.03375 1 3 cbr 210 ------- 0 1.1 -2147483648.0 9 30
r 1.036547 0 1 prune 80 ------- 30 0.0 1.0 -1 19
r 1.036547 2 1 prune 80 ------- 30 2.0 1.0 -1 20
r 1.036547 3 1 prune 80 ------- 30 3.0 1.0 -1 21
r 1.03737 1 0 cbr 210 ------- 0 1.1 -2147483648.0 7 22
+ 1.03737 0 1 prune 80 ------- 30 0.0 1.0 -1 31
- 1.03737 0 1 prune 80 ------- 30 0.0 1.0 -1 31
r 1.03737 1 2 cbr 210 ------- 0 1.1 -2147483648.0 7 22
+ 1.03737 2 1 prune 80 ------- 30 2.0 1.0 -1 32
- 1.03737 2 1 prune 80 ------- 30 2.0 1.0 -1 32
r 1.03737 1 3 cbr 210 ------- 0 1.1 -2147483648.0 7 22
+ 1.03737 3 1 prune 80 ------- 30 3.0 1.0 -1 33
- 1.03737 3 1 prune 80 ------- 30 3.0 1.0 -1 33
+ 1.0375 1 0 cbr 210 ------- 0 1.1 -2147483648.0 10 34
- 1.0375 1 0 cbr 210 ------- 0 1.1 -2147483648.0 10 34
+ 1.0375 1 2 cbr 210 ------- 0 1.1 -2147483648.0 10 34
- 1.0375 1 2 cbr 210 ------- 0 1.1 -2147483648.0 10 34
+ 1.0375 1 3 cbr 210 ------- 0 1.1 -2147483648.0 10 34
- 1.0375 1 3 cbr 210 ------- 0 1.1 -2147483648.0 10 34
r 1.040297 0 1 prune 80 ------- 30 0.0 1.0 -1 23
r 1.040297 2 1 prune 80 ------- 30 2.0 1.0 -1 24
r 1.040297 3 1 prune 80 ------- 30 3.0 1.0 -1 25
r 1.04112 1 0 cbr 210 ------- 0 1.1 -2147483648.0 8 26
+ 1.04112 0 1 prune 80 ------- 30 0.0 1.0 -1 35
- 1.04112 0 1 prune 80 ------- 30 0.0 1.0 -1 35
r 1.04112 1 2 cbr 210 ------- 0 1.1 -2147483648.0 8 26
+ 1.04112 2 1 prune 80 ------- 30 2.0 1.0 -1 36
- 1.04112 2 1 prune 80 ------- 30 2.0 1.0 -1 36
r 1.04112 1 3 cbr 210 ------- 0 1.1 -2147483648.0 8 26
+ 1.04112 3 1 prune 80 ------- 30 3.0 1.0 -1 37
- 1.04112 3 1 prune 80 ------- 30 3.0 1.0 -1 37
+ 1.04125 1 0 cbr 210 ------- 0 1.1 -2147483648.0 11 38
- 1.04125 1 0 cbr 210 ------- 0 1.1 -2147483648.0 11 38
+ 1.04125 1 2 cbr 210 ------- 0 1.1 -2147483648.0 11 38
- 1.04125 1 2 cbr 210 ------- 0 1.1 -2147483648.0 11 38
+ 1.04125 1 3 cbr 210 ------- 0 1.1 -2147483648.0 11 38
- 1.04125 1 3 cbr 210 ------- 0 1.1 -2147483648.0 11 38
r 1.044047 0 1 prune 80 ------- 30 0.0 1.0 -1 27
r 1.044047 2 1 prune 80 ------- 30 2.0 1.0 -1 28
r 1.044047 3 1 prune 80 ------- 30 3.0 1.0 -1 29
r 1.04487 1 0 cbr 210 ------- 0 1.1 -2147483648.0 9 30
+ 1.04487 0 1 prune 80 ------- 30 0.0 1.0 -1 39
- 1.04487 0 1 prune 80 ------- 30 0.0 1.0 -1 39
r 1.04487 1 2 cbr 210 ------- 0 1.1 -2147483648.0 9 30
+ 1.04487 2 1 prune 80 ------- 30 2.0 1.0 -1 40
- 1.04487 2 1 prune 80 ------- 30 2.0 1.0 -1 40
r 1.04487 1 3 cbr 210 ------- 0 1.1 -2147483648.0 9 30
+ 1.04487 3 1 prune 80 ------- 30 3.0 1.0 -1 41
- 1.04487 3 1 prune 80 ------- 30 3.0 1.0 -1 41
+ 1.045 1 0 cbr 210 ------- 0 1.1 -2147483648.0 12 42
- 1.045 1 0 cbr 210 ------- 0 1.1 -2147483648.0 12 42
+ 1.045 1 2 cbr 210 ------- 0 1.1 -2147483648.0 12 42
- 1.045 1 2 cbr 210 ------- 0 1.1 -2147483648.0 12 42
+ 1.045 1 3 cbr 210 ------- 0 1.1 -2147483648.0 12 42
- 1.045 1 3 cbr 210 ------- 0 1.1 -2147483648.0 12 42
r 1.047797 0 1 prune 80 ------- 30 0.0 1.0 -1 31
r 1.047797 2 1 prune 80 ------- 30 2.0 1.0 -1 32
r 1.047797 3 1 prune 80 ------- 30 3.0 1.0 -1 33
r 1.04862 1 0 cbr 210 ------- 0 1.1 -2147483648.0 10 34
+ 1.04862 0 1 prune 80 ------- 30 0.0 1.0 -1 43
- 1.04862 0 1 prune 80 ------- 30 0.0 1.0 -1 43
r 1.04862 1 2 cbr 210 ------- 0 1.1 -2147483648.0 10 34
+ 1.04862 2 1 prune 80 ------- 30 2.0 1.0 -1 44
- 1.04862 2 1 prune 80 ------- 30 2.0 1.0 -1 44
r 1.04862 1 3 cbr 210 ------- 0 1.1 -2147483648.0 10 34
+ 1.04862 3 1 prune 80 ------- 30 3.0 1.0 -1 45
- 1.04862 3 1 prune 80 ------- 30 3.0 1.0 -1 45
+ 1.04875 1 0 cbr 210 ------- 0 1.1 -2147483648.0 13 46
- 1.04875 1 0 cbr 210 ------- 0 1.1 -2147483648.0 13 46
+ 1.04875 1 2 cbr 210 ------- 0 1.1 -2147483648.0 13 46
- 1.04875 1 2 cbr 210 ------- 0 1.1 -2147483648.0 13 46
+ 1.04875 1 3 cbr 210 ------- 0 1.1 -2147483648.0 13 46
- 1.04875 1 3 cbr 210 ------- 0 1.1 -2147483648.0 13 46
r 1.051547 0 1 prune 80 ------- 30 0.0 1.0 -1 35
r 1.051547 2 1 prune 80 ------- 30 2.0 1.0 -1 36
r 1.051547 3 1 prune 80 ------- 30 3.0 1.0 -1 37
r 1.05237 1 0 cbr 210 ------- 0 1.1 -2147483648.0 11 38
+ 1.05237 0 1 prune 80 ------- 30 0.0 1.0 -1 47
- 1.05237 0 1 prune 80 ------- 30 0.0 1.0 -1 47
r 1.05237 1 2 cbr 210 ------- 0 1.1 -2147483648.0 11 38
+ 1.05237 2 1 prune 80 ------- 30 2.0 1.0 -1 48
- 1.05237 2 1 prune 80 ------- 30 2.0 1.0 -1 48
r 1.05237 1 3 cbr 210 ------- 0 1.1 -2147483648.0 11 38
+ 1.05237 3 1 prune 80 ------- 30 3.0 1.0 -1 49
- 1.05237 3 1 prune 80 ------- 30 3.0 1.0 -1 49
+ 1.0525 1 0 cbr 210 ------- 0 1.1 -2147483648.0 14 50
- 1.0525 1 0 cbr 210 ------- 0 1.1 -2147483648.0 14 50
+ 1.0525 1 2 cbr 210 ------- 0 1.1 -2147483648.0 14 50
- 1.0525 1 2 cbr 210 ------- 0 1.1 -2147483648.0 14 50
+ 1.0525 1 3 cbr 210 ------- 0 1.1 -2147483648.0 14 50
- 1.0525 1 3 cbr 210 ------- 0 1.1 -2147483648.0 14 50
r 1.055297 0 1 prune 80 ------- 30 0.0 1.0 -1 39
r 1.055297 2 1 prune 80 ------- 30 2.0 1.0 -1 40
r 1.055297 3 1 prune 80 ------- 30 3.0 1.0 -1 41
r 1.05612 1 0 cbr 210 ------- 0 1.1 -2147483648.0 12 42
+ 1.05612 0 1 prune 80 ------- 30 0.0 1.0 -1 51
- 1.05612 0 1 prune 80 ------- 30 0.0 1.0 -1 51
r 1.05612 1 2 cbr 210 ------- 0 1.1 -2147483648.0 12 42
+ 1.05612 2 1 prune 80 ------- 30 2.0 1.0 -1 52
- 1.05612 2 1 prune 80 ------- 30 2.0 1.0 -1 52
r 1.05612 1 3 cbr 210 ------- 0 1.1 -2147483648.0 12 42
+ 1.05612 3 1 prune 80 ------- 30 3.0 1.0 -1 53
- 1.05612 3 1 prune 80 ------- 30 3.0 1.0 -1 53
+ 1.05625 1 0 cbr 210 ------- 0 1.1 -2147483648.0 15 54
- 1.05625 1 0 cbr 210 ------- 0 1.1 -2147483648.0 15 54
+ 1.05625 1 2 cbr 210 ------- 0 1.1 -2147483648.0 15 54
- 1.05625 1 2 cbr 210 ------- 0 1.1 -2147483648.0 15 54
+ 1.05625 1 3 cbr 210 ------- 0 1.1 -2147483648.0 15 54
- 1.05625 1 3 cbr 210 ------- 0 1.1 -2147483648.0 15 54
r 1.059047 0 1 prune 80 ------- 30 0.0 1.0 -1 43
r 1.059047 2 1 prune 80 ------- 30 2.0 1.0 -1 44
r 1.059047 3 1 prune 80 ------- 30 3.0 1.0 -1 45
r 1.05987 1 0 cbr 210 ------- 0 1.1 -2147483648.0 13 46
+ 1.05987 0 1 prune 80 ------- 30 0.0 1.0 -1 55
- 1.05987 0 1 prune 80 ------- 30 0.0 1.0 -1 55
r 1.05987 1 2 cbr 210 ------- 0 1.1 -2147483648.0 13 46
+ 1.05987 2 1 prune 80 ------- 30 2.0 1.0 -1 56
- 1.05987 2 1 prune 80 ------- 30 2.0 1.0 -1 56
r 1.05987 1 3 cbr 210 ------- 0 1.1 -2147483648.0 13 46
+ 1.05987 3 1 prune 80 ------- 30 3.0 1.0 -1 57
- 1.05987 3 1 prune 80 ------- 30 3.0 1.0 -1 57
+ 1.06 1 0 cbr 210 ------- 0 1.1 -2147483648.0 16 58
- 1.06 1 0 cbr 210 ------- 0 1.1 -2147483648.0 16 58
+ 1.06 1 2 cbr 210 ------- 0 1.1 -2147483648.0 16 58
- 1.06 1 2 cbr 210 ------- 0 1.1 -2147483648.0 16 58
+ 1.06 1 3 cbr 210 ------- 0 1.1 -2147483648.0 16 58
- 1.06 1 3 cbr 210 ------- 0 1.1 -2147483648.0 16 58
r 1.062797 0 1 prune 80 ------- 30 0.0 1.0 -1 47
r 1.062797 2 1 prune 80 ------- 30 2.0 1.0 -1 48
r 1.062797 3 1 prune 80 ------- 30 3.0 1.0 -1 49
r 1.06362 1 0 cbr 210 ------- 0 1.1 -2147483648.0 14 50
+ 1.06362 0 1 prune 80 ------- 30 0.0 1.0 -1 59
- 1.06362 0 1 prune 80 ------- 30 0.0 1.0 -1 59
r 1.06362 1 2 cbr 210 ------- 0 1.1 -2147483648.0 14 50
+ 1.06362 2 1 prune 80 ------- 30 2.0 1.0 -1 60
- 1.06362 2 1 prune 80 ------- 30 2.0 1.0 -1 60
r 1.06362 1 3 cbr 210 ------- 0 1.1 -2147483648.0 14 50
+ 1.06362 3 1 prune 80 ------- 30 3.0 1.0 -1 61
- 1.06362 3 1 prune 80 ------- 30 3.0 1.0 -1 61
+ 1.06375 1 0 cbr 210 ------- 0 1.1 -2147483648.0 17 62
- 1.06375 1 0 cbr 210 ------- 0 1.1 -2147483648.0 17 62
+ 1.06375 1 2 cbr 210 ------- 0 1.1 -2147483648.0 17 62
- 1.06375 1 2 cbr 210 ------- 0 1.1 -2147483648.0 17 62
+ 1.06375 1 3 cbr 210 ------- 0 1.1 -2147483648.0 17 62
- 1.06375 1 3 cbr 210 ------- 0 1.1 -2147483648.0 17 62
r 1.066547 0 1 prune 80 ------- 30 0.0 1.0 -1 51
r 1.066547 2 1 prune 80 ------- 30 2.0 1.0 -1 52
r 1.066547 3 1 prune 80 ------- 30 3.0 1.0 -1 53
r 1.06737 1 0 cbr 210 ------- 0 1.1 -2147483648.0 15 54
+ 1.06737 0 1 prune 80 ------- 30 0.0 1.0 -1 63
- 1.06737 0 1 prune 80 ------- 30 0.0 1.0 -1 63
r 1.06737 1 2 cbr 210 ------- 0 1.1 -2147483648.0 15 54
+ 1.06737 2 1 prune 80 ------- 30 2.0 1.0 -1 64
- 1.06737 2 1 prune 80 ------- 30 2.0 1.0 -1 64
r 1.06737 1 3 cbr 210 ------- 0 1.1 -2147483648.0 15 54
+ 1.06737 3 1 prune 80 ------- 30 3.0 1.0 -1 65
- 1.06737 3 1 prune 80 ------- 30 3.0 1.0 -1 65
+ 1.0675 1 0 cbr 210 ------- 0 1.1 -2147483648.0 18 66
- 1.0675 1 0 cbr 210 ------- 0 1.1 -2147483648.0 18 66
+ 1.0675 1 2 cbr 210 ------- 0 1.1 -2147483648.0 18 66
- 1.0675 1 2 cbr 210 ------- 0 1.1 -2147483648.0 18 66
+ 1.0675 1 3 cbr 210 ------- 0 1.1 -2147483648.0 18 66
- 1.0675 1 3 cbr 210 ------- 0 1.1 -2147483648.0 18 66
r 1.070297 0 1 prune 80 ------- 30 0.0 1.0 -1 55
r 1.070297 2 1 prune 80 ------- 30 2.0 1.0 -1 56
r 1.070297 3 1 prune 80 ------- 30 3.0 1.0 -1 57
r 1.07112 1 0 cbr 210 ------- 0 1.1 -2147483648.0 16 58
+ 1.07112 0 1 prune 80 ------- 30 0.0 1.0 -1 67
- 1.07112 0 1 prune 80 ------- 30 0.0 1.0 -1 67
r 1.07112 1 2 cbr 210 ------- 0 1.1 -2147483648.0 16 58
+ 1.07112 2 1 prune 80 ------- 30 2.0 1.0 -1 68
- 1.07112 2 1 prune 80 ------- 30 2.0 1.0 -1 68
r 1.07112 1 3 cbr 210 ------- 0 1.1 -2147483648.0 16 58
+ 1.07112 3 1 prune 80 ------- 30 3.0 1.0 -1 69
- 1.07112 3 1 prune 80 ------- 30 3.0 1.0 -1 69
+ 1.07125 1 0 cbr 210 ------- 0 1.1 -2147483648.0 19 70
- 1.07125 1 0 cbr 210 ------- 0 1.1 -2147483648.0 19 70
+ 1.07125 1 2 cbr 210 ------- 0 1.1 -2147483648.0 19 70
- 1.07125 1 2 cbr 210 ------- 0 1.1 -2147483648.0 19 70
+ 1.07125 1 3 cbr 210 ------- 0 1.1 -2147483648.0 19 70
- 1.07125 1 3 cbr 210 ------- 0 1.1 -2147483648.0 19 70
r 1.074047 0 1 prune 80 ------- 30 0.0 1.0 -1 59
r 1.074047 2 1 prune 80 ------- 30 2.0 1.0 -1 60
r 1.074047 3 1 prune 80 ------- 30 3.0 1.0 -1 61
r 1.07487 1 0 cbr 210 ------- 0 1.1 -2147483648.0 17 62
+ 1.07487 0 1 prune 80 ------- 30 0.0 1.0 -1 71
- 1.07487 0 1 prune 80 ------- 30 0.0 1.0 -1 71
r 1.07487 1 2 cbr 210 ------- 0 1.1 -2147483648.0 17 62
+ 1.07487 2 1 prune 80 ------- 30 2.0 1.0 -1 72
- 1.07487 2 1 prune 80 ------- 30 2.0 1.0 -1 72
r 1.07487 1 3 cbr 210 ------- 0 1.1 -2147483648.0 17 62
+ 1.07487 3 1 prune 80 ------- 30 3.0 1.0 -1 73
- 1.07487 3 1 prune 80 ------- 30 3.0 1.0 -1 73
+ 1.075 1 0 cbr 210 ------- 0 1.1 -2147483648.0 20 74
- 1.075 1 0 cbr 210 ------- 0 1.1 -2147483648.0 20 74
+ 1.075 1 2 cbr 210 ------- 0 1.1 -2147483648.0 20 74
- 1.075 1 2 cbr 210 ------- 0 1.1 -2147483648.0 20 74
+ 1.075 1 3 cbr 210 ------- 0 1.1 -2147483648.0 20 74
- 1.075 1 3 cbr 210 ------- 0 1.1 -2147483648.0 20 74
r 1.077797 0 1 prune 80 ------- 30 0.0 1.0 -1 63
r 1.077797 2 1 prune 80 ------- 30 2.0 1.0 -1 64
r 1.077797 3 1 prune 80 ------- 30 3.0 1.0 -1 65
r 1.07862 1 0 cbr 210 ------- 0 1.1 -2147483648.0 18 66
+ 1.07862 0 1 prune 80 ------- 30 0.0 1.0 -1 75
- 1.07862 0 1 prune 80 ------- 30 0.0 1.0 -1 75
r 1.07862 1 2 cbr 210 ------- 0 1.1 -2147483648.0 18 66
+ 1.07862 2 1 prune 80 ------- 30 2.0 1.0 -1 76
- 1.07862 2 1 prune 80 ------- 30 2.0 1.0 -1 76
r 1.07862 1 3 cbr 210 ------- 0 1.1 -2147483648.0 18 66
+ 1.07862 3 1 prune 80 ------- 30 3.0 1.0 -1 77
- 1.07862 3 1 prune 80 ------- 30 3.0 1.0 -1 77
+ 1.07875 1 0 cbr 210 ------- 0 1.1 -2147483648.0 21 78
- 1.07875 1 0 cbr 210 ------- 0 1.1 -2147483648.0 21 78
+ 1.07875 1 2 cbr 210 ------- 0 1.1 -2147483648.0 21 78
- 1.07875 1 2 cbr 210 ------- 0 1.1 -2147483648.0 21 78
+ 1.07875 1 3 cbr 210 ------- 0 1.1 -2147483648.0 21 78
- 1.07875 1 3 cbr 210 ------- 0 1.1 -2147483648.0 21 78
r 1.081547 0 1 prune 80 ------- 30 0.0 1.0 -1 67
r 1.081547 2 1 prune 80 ------- 30 2.0 1.0 -1 68
r 1.081547 3 1 prune 80 ------- 30 3.0 1.0 -1 69
r 1.08237 1 0 cbr 210 ------- 0 1.1 -2147483648.0 19 70
+ 1.08237 0 1 prune 80 ------- 30 0.0 1.0 -1 79
- 1.08237 0 1 prune 80 ------- 30 0.0 1.0 -1 79
r 1.08237 1 2 cbr 210 ------- 0 1.1 -2147483648.0 19 70
+ 1.08237 2 1 prune 80 ------- 30 2.0 1.0 -1 80
- 1.08237 2 1 prune 80 ------- 30 2.0 1.0 -1 80
r 1.08237 1 3 cbr 210 ------- 0 1.1 -2147483648.0 19 70
+ 1.08237 3 1 prune 80 ------- 30 3.0 1.0 -1 81
- 1.08237 3 1 prune 80 ------- 30 3.0 1.0 -1 81
+ 1.0825 1 0 cbr 210 ------- 0 1.1 -2147483648.0 22 82
- 1.0825 1 0 cbr 210 ------- 0 1.1 -2147483648.0 22 82
+ 1.0825 1 2 cbr 210 ------- 0 1.1 -2147483648.0 22 82
- 1.0825 1 2 cbr 210 ------- 0 1.1 -2147483648.0 22 82
+ 1.0825 1 3 cbr 210 ------- 0 1.1 -2147483648.0 22 82
- 1.0825 1 3 cbr 210 ------- 0 1.1 -2147483648.0 22 82
r 1.085297 0 1 prune 80 ------- 30 0.0 1.0 -1 71
r 1.085297 2 1 prune 80 ------- 30 2.0 1.0 -1 72
r 1.085297 3 1 prune 80 ------- 30 3.0 1.0 -1 73
r 1.08612 1 0 cbr 210 ------- 0 1.1 -2147483648.0 20 74
+ 1.08612 0 1 prune 80 ------- 30 0.0 1.0 -1 83
- 1.08612 0 1 prune 80 ------- 30 0.0 1.0 -1 83
r 1.08612 1 2 cbr 210 ------- 0 1.1 -2147483648.0 20 74
+ 1.08612 2 1 prune 80 ------- 30 2.0 1.0 -1 84
- 1.08612 2 1 prune 80 ------- 30 2.0 1.0 -1 84
r 1.08612 1 3 cbr 210 ------- 0 1.1 -2147483648.0 20 74
+ 1.08612 3 1 prune 80 ------- 30 3.0 1.0 -1 85
- 1.08612 3 1 prune 80 ------- 30 3.0 1.0 -1 85
+ 1.08625 1 0 cbr 210 ------- 0 1.1 -2147483648.0 23 86
- 1.08625 1 0 cbr 210 ------- 0 1.1 -2147483648.0 23 86
+ 1.08625 1 2 cbr 210 ------- 0 1.1 -2147483648.0 23 86
- 1.08625 1 2 cbr 210 ------- 0 1.1 -2147483648.0 23 86
+ 1.08625 1 3 cbr 210 ------- 0 1.1 -2147483648.0 23 86
- 1.08625 1 3 cbr 210 ------- 0 1.1 -2147483648.0 23 86
r 1.089047 0 1 prune 80 ------- 30 0.0 1.0 -1 75
r 1.089047 2 1 prune 80 ------- 30 2.0 1.0 -1 76
r 1.089047 3 1 prune 80 ------- 30 3.0 1.0 -1 77
r 1.08987 1 0 cbr 210 ------- 0 1.1 -2147483648.0 21 78
+ 1.08987 0 1 prune 80 ------- 30 0.0 1.0 -1 87
- 1.08987 0 1 prune 80 ------- 30 0.0 1.0 -1 87
r 1.08987 1 2 cbr 210 ------- 0 1.1 -2147483648.0 21 78
+ 1.08987 2 1 prune 80 ------- 30 2.0 1.0 -1 88
- 1.08987 2 1 prune 80 ------- 30 2.0 1.0 -1 88
r 1.08987 1 3 cbr 210 ------- 0 1.1 -2147483648.0 21 78
+ 1.08987 3 1 prune 80 ------- 30 3.0 1.0 -1 89
- 1.08987 3 1 prune 80 ------- 30 3.0 1.0 -1 89
+ 1.09 1 0 cbr 210 ------- 0 1.1 -2147483648.0 24 90
- 1.09 1 0 cbr 210 ------- 0 1.1 -2147483648.0 24 90
+ 1.09 1 2 cbr 210 ------- 0 1.1 -2147483648.0 24 90
- 1.09 1 2 cbr 210 ------- 0 1.1 -2147483648.0 24 90
+ 1.09 1 3 cbr 210 ------- 0 1.1 -2147483648.0 24 90
- 1.09 1 3 cbr 210 ------- 0 1.1 -2147483648.0 24 90
r 1.092797 0 1 prune 80 ------- 30 0.0 1.0 -1 79
r 1.092797 2 1 prune 80 ------- 30 2.0 1.0 -1 80
r 1.092797 3 1 prune 80 ------- 30 3.0 1.0 -1 81
r 1.09362 1 0 cbr 210 ------- 0 1.1 -2147483648.0 22 82
+ 1.09362 0 1 prune 80 ------- 30 0.0 1.0 -1 91
- 1.09362 0 1 prune 80 ------- 30 0.0 1.0 -1 91
r 1.09362 1 2 cbr 210 ------- 0 1.1 -2147483648.0 22 82
+ 1.09362 2 1 prune 80 ------- 30 2.0 1.0 -1 92
- 1.09362 2 1 prune 80 ------- 30 2.0 1.0 -1 92
r 1.09362 1 3 cbr 210 ------- 0 1.1 -2147483648.0 22 82
+ 1.09362 3 1 prune 80 ------- 30 3.0 1.0 -1 93
- 1.09362 3 1 prune 80 ------- 30 3.0 1.0 -1 93
+ 1.09375 1 0 cbr 210 ------- 0 1.1 -2147483648.0 25 94
- 1.09375 1 0 cbr 210 ------- 0 1.1 -2147483648.0 25 94
+ 1.09375 1 2 cbr 210 ------- 0 1.1 -2147483648.0 25 94
- 1.09375 1 2 cbr 210 ------- 0 1.1 -2147483648.0 25 94
+ 1.09375 1 3 cbr 210 ------- 0 1.1 -2147483648.0 25 94
- 1.09375 1 3 cbr 210 ------- 0 1.1 -2147483648.0 25 94
r 1.096547 0 1 prune 80 ------- 30 0.0 1.0 -1 83
r 1.096547 2 1 prune 80 ------- 30 2.0 1.0 -1 84
r 1.096547 3 1 prune 80 ------- 30 3.0 1.0 -1 85
r 1.09737 1 0 cbr 210 ------- 0 1.1 -2147483648.0 23 86
+ 1.09737 0 1 prune 80 ------- 30 0.0 1.0 -1 95
- 1.09737 0 1 prune 80 ------- 30 0.0 1.0 -1 95
r 1.09737 1 2 cbr 210 ------- 0 1.1 -2147483648.0 23 86
+ 1.09737 2 1 prune 80 ------- 30 2.0 1.0 -1 96
- 1.09737 2 1 prune 80 ------- 30 2.0 1.0 -1 96
r 1.09737 1 3 cbr 210 ------- 0 1.1 -2147483648.0 23 86
+ 1.09737 3 1 prune 80 ------- 30 3.0 1.0 -1 97
- 1.09737 3 1 prune 80 ------- 30 3.0 1.0 -1 97
+ 1.0975 1 0 cbr 210 ------- 0 1.1 -2147483648.0 26 98
- 1.0975 1 0 cbr 210 ------- 0 1.1 -2147483648.0 26 98
+ 1.0975 1 2 cbr 210 ------- 0 1.1 -2147483648.0 26 98
- 1.0975 1 2 cbr 210 ------- 0 1.1 -2147483648.0 26 98
+ 1.0975 1 3 cbr 210 ------- 0 1.1 -2147483648.0 26 98
- 1.0975 1 3 cbr 210 ------- 0 1.1 -2147483648.0 26 98
+ 1.1 3 1 cbr 210 ------- 1 3.1 -2147483647.0 0 99
- 1.1 3 1 cbr 210 ------- 1 3.1 -2147483647.0 0 99
r 1.100297 0 1 prune 80 ------- 30 0.0 1.0 -1 87
r 1.100297 2 1 prune 80 ------- 30 2.0 1.0 -1 88
r 1.100297 3 1 prune 80 ------- 30 3.0 1.0 -1 89
r 1.10112 1 0 cbr 210 ------- 0 1.1 -2147483648.0 24 90
+ 1.10112 0 1 prune 80 ------- 30 0.0 1.0 -1 100
- 1.10112 0 1 prune 80 ------- 30 0.0 1.0 -1 100
r 1.10112 1 2 cbr 210 ------- 0 1.1 -2147483648.0 24 90
+ 1.10112 2 1 prune 80 ------- 30 2.0 1.0 -1 101
- 1.10112 2 1 prune 80 ------- 30 2.0 1.0 -1 101
r 1.10112 1 3 cbr 210 ------- 0 1.1 -2147483648.0 24 90
+ 1.10112 3 1 prune 80 ------- 30 3.0 1.0 -1 102
- 1.10112 3 1 prune 80 ------- 30 3.0 1.0 -1 102
+ 1.10125 1 0 cbr 210 ------- 0 1.1 -2147483648.0 27 103
- 1.10125 1 0 cbr 210 ------- 0 1.1 -2147483648.0 27 103
+ 1.10125 1 2 cbr 210 ------- 0 1.1 -2147483648.0 27 103
- 1.10125 1 2 cbr 210 ------- 0 1.1 -2147483648.0 27 103
+ 1.10125 1 3 cbr 210 ------- 0 1.1 -2147483648.0 27 103
- 1.10125 1 3 cbr 210 ------- 0 1.1 -2147483648.0 27 103
+ 1.10375 3 1 cbr 210 ------- 1 3.1 -2147483647.0 1 104
- 1.10375 3 1 cbr 210 ------- 1 3.1 -2147483647.0 1 104
r 1.104047 0 1 prune 80 ------- 30 0.0 1.0 -1 91
r 1.104047 2 1 prune 80 ------- 30 2.0 1.0 -1 92
r 1.104047 3 1 prune 80 ------- 30 3.0 1.0 -1 93
r 1.10487 1 0 cbr 210 ------- 0 1.1 -2147483648.0 25 94
+ 1.10487 0 1 prune 80 ------- 30 0.0 1.0 -1 105
- 1.10487 0 1 prune 80 ------- 30 0.0 1.0 -1 105
r 1.10487 1 2 cbr 210 ------- 0 1.1 -2147483648.0 25 94
+ 1.10487 2 1 prune 80 ------- 30 2.0 1.0 -1 106
- 1.10487 2 1 prune 80 ------- 30 2.0 1.0 -1 106
r 1.10487 1 3 cbr 210 ------- 0 1.1 -2147483648.0 25 94
+ 1.10487 3 1 prune 80 ------- 30 3.0 1.0 -1 107
- 1.10487 3 1 prune 80 ------- 30 3.0 1.0 -1 107
+ 1.105 1 0 cbr 210 ------- 0 1.1 -2147483648.0 28 108
- 1.105 1 0 cbr 210 ------- 0 1.1 -2147483648.0 28 108
+ 1.105 1 2 cbr 210 ------- 0 1.1 -2147483648.0 28 108
- 1.105 1 2 cbr 210 ------- 0 1.1 -2147483648.0 28 108
+ 1.105 1 3 cbr 210 ------- 0 1.1 -2147483648.0 28 108
- 1.105 1 3 cbr 210 ------- 0 1.1 -2147483648.0 28 108
+ 1.1075 3 1 cbr 210 ------- 1 3.1 -2147483647.0 2 109
- 1.1075 3 1 cbr 210 ------- 1 3.1 -2147483647.0 2 109
r 1.107797 0 1 prune 80 ------- 30 0.0 1.0 -1 95
r 1.107797 2 1 prune 80 ------- 30 2.0 1.0 -1 96
r 1.107797 3 1 prune 80 ------- 30 3.0 1.0 -1 97
r 1.10862 1 0 cbr 210 ------- 0 1.1 -2147483648.0 26 98
+ 1.10862 0 1 prune 80 ------- 30 0.0 1.0 -1 110
- 1.10862 0 1 prune 80 ------- 30 0.0 1.0 -1 110
r 1.10862 1 2 cbr 210 ------- 0 1.1 -2147483648.0 26 98
+ 1.10862 2 1 prune 80 ------- 30 2.0 1.0 -1 111
- 1.10862 2 1 prune 80 ------- 30 2.0 1.0 -1 111
r 1.10862 1 3 cbr 210 ------- 0 1.1 -2147483648.0 26 98
+ 1.10862 3 1 prune 80 ------- 30 3.0 1.0 -1 112
- 1.10862 3 1 prune 80 ------- 30 3.0 1.0 -1 112
+ 1.10875 1 0 cbr 210 ------- 0 1.1 -2147483648.0 29 113
- 1.10875 1 0 cbr 210 ------- 0 1.1 -2147483648.0 29 113
+ 1.10875 1 2 cbr 210 ------- 0 1.1 -2147483648.0 29 113
- 1.10875 1 2 cbr 210 ------- 0 1.1 -2147483648.0 29 113
+ 1.10875 1 3 cbr 210 ------- 0 1.1 -2147483648.0 29 113
- 1.10875 1 3 cbr 210 ------- 0 1.1 -2147483648.0 29 113
r 1.11112 3 1 cbr 210 ------- 1 3.1 -2147483647.0 0 99
+ 1.11112 1 0 cbr 210 ------- 1 3.1 -2147483647.0 0 99
- 1.11112 1 0 cbr 210 ------- 1 3.1 -2147483647.0 0 99
+ 1.11112 1 2 cbr 210 ------- 1 3.1 -2147483647.0 0 99
- 1.11112 1 2 cbr 210 ------- 1 3.1 -2147483647.0 0 99
+ 1.11125 3 1 cbr 210 ------- 1 3.1 -2147483647.0 3 114
- 1.11125 3 1 cbr 210 ------- 1 3.1 -2147483647.0 3 114
r 1.111547 0 1 prune 80 ------- 30 0.0 1.0 -1 100
r 1.111547 2 1 prune 80 ------- 30 2.0 1.0 -1 101
r 1.111547 3 1 prune 80 ------- 30 3.0 1.0 -1 102
r 1.11237 1 0 cbr 210 ------- 0 1.1 -2147483648.0 27 103
+ 1.11237 0 1 prune 80 ------- 30 0.0 1.0 -1 115
- 1.11237 0 1 prune 80 ------- 30 0.0 1.0 -1 115
r 1.11237 1 2 cbr 210 ------- 0 1.1 -2147483648.0 27 103
+ 1.11237 2 1 prune 80 ------- 30 2.0 1.0 -1 116
- 1.11237 2 1 prune 80 ------- 30 2.0 1.0 -1 116
r 1.11237 1 3 cbr 210 ------- 0 1.1 -2147483648.0 27 103
+ 1.11237 3 1 prune 80 ------- 30 3.0 1.0 -1 117
- 1.11237 3 1 prune 80 ------- 30 3.0 1.0 -1 117
+ 1.1125 1 0 cbr 210 ------- 0 1.1 -2147483648.0 30 118
- 1.1125 1 0 cbr 210 ------- 0 1.1 -2147483648.0 30 118
+ 1.1125 1 2 cbr 210 ------- 0 1.1 -2147483648.0 30 118
- 1.1125 1 2 cbr 210 ------- 0 1.1 -2147483648.0 30 118
+ 1.1125 1 3 cbr 210 ------- 0 1.1 -2147483648.0 30 118
- 1.1125 1 3 cbr 210 ------- 0 1.1 -2147483648.0 30 118
r 1.11487 3 1 cbr 210 ------- 1 3.1 -2147483647.0 1 104
+ 1.11487 1 0 cbr 210 ------- 1 3.1 -2147483647.0 1 104
- 1.11487 1 0 cbr 210 ------- 1 3.1 -2147483647.0 1 104
+ 1.11487 1 2 cbr 210 ------- 1 3.1 -2147483647.0 1 104
- 1.11487 1 2 cbr 210 ------- 1 3.1 -2147483647.0 1 104
+ 1.115 3 1 cbr 210 ------- 1 3.1 -2147483647.0 4 119
- 1.115 3 1 cbr 210 ------- 1 3.1 -2147483647.0 4 119
r 1.115297 0 1 prune 80 ------- 30 0.0 1.0 -1 105
r 1.115297 2 1 prune 80 ------- 30 2.0 1.0 -1 106
r 1.115297 3 1 prune 80 ------- 30 3.0 1.0 -1 107
r 1.11612 1 0 cbr 210 ------- 0 1.1 -2147483648.0 28 108
+ 1.11612 0 1 prune 80 ------- 30 0.0 1.0 -1 120
- 1.11612 0 1 prune 80 ------- 30 0.0 1.0 -1 120
r 1.11612 1 2 cbr 210 ------- 0 1.1 -2147483648.0 28 108
+ 1.11612 2 1 prune 80 ------- 30 2.0 1.0 -1 121
- 1.11612 2 1 prune 80 ------- 30 2.0 1.0 -1 121
r 1.11612 1 3 cbr 210 ------- 0 1.1 -2147483648.0 28 108
+ 1.11612 3 1 prune 80 ------- 30 3.0 1.0 -1 122
- 1.11612 3 1 prune 80 ------- 30 3.0 1.0 -1 122
+ 1.11625 1 0 cbr 210 ------- 0 1.1 -2147483648.0 31 123
- 1.11625 1 0 cbr 210 ------- 0 1.1 -2147483648.0 31 123
+ 1.11625 1 2 cbr 210 ------- 0 1.1 -2147483648.0 31 123
- 1.11625 1 2 cbr 210 ------- 0 1.1 -2147483648.0 31 123
+ 1.11625 1 3 cbr 210 ------- 0 1.1 -2147483648.0 31 123
- 1.11625 1 3 cbr 210 ------- 0 1.1 -2147483648.0 31 123
r 1.11862 3 1 cbr 210 ------- 1 3.1 -2147483647.0 2 109
+ 1.11862 1 0 cbr 210 ------- 1 3.1 -2147483647.0 2 109
- 1.11862 1 0 cbr 210 ------- 1 3.1 -2147483647.0 2 109
+ 1.11862 1 2 cbr 210 ------- 1 3.1 -2147483647.0 2 109
- 1.11862 1 2 cbr 210 ------- 1 3.1 -2147483647.0 2 109
+ 1.11875 3 1 cbr 210 ------- 1 3.1 -2147483647.0 5 124
- 1.11875 3 1 cbr 210 ------- 1 3.1 -2147483647.0 5 124
r 1.119047 0 1 prune 80 ------- 30 0.0 1.0 -1 110
r 1.119047 2 1 prune 80 ------- 30 2.0 1.0 -1 111
r 1.119047 3 1 prune 80 ------- 30 3.0 1.0 -1 112
r 1.11987 1 0 cbr 210 ------- 0 1.1 -2147483648.0 29 113
+ 1.11987 0 1 prune 80 ------- 30 0.0 1.0 -1 125
- 1.11987 0 1 prune 80 ------- 30 0.0 1.0 -1 125
r 1.11987 1 2 cbr 210 ------- 0 1.1 -2147483648.0 29 113
+ 1.11987 2 1 prune 80 ------- 30 2.0 1.0 -1 126
- 1.11987 2 1 prune 80 ------- 30 2.0 1.0 -1 126
r 1.11987 1 3 cbr 210 ------- 0 1.1 -2147483648.0 29 113
+ 1.11987 3 1 prune 80 ------- 30 3.0 1.0 -1 127
- 1.11987 3 1 prune 80 ------- 30 3.0 1.0 -1 127
+ 1.12 1 0 cbr 210 ------- 0 1.1 -2147483648.0 32 128
- 1.12 1 0 cbr 210 ------- 0 1.1 -2147483648.0 32 128
+ 1.12 1 2 cbr 210 ------- 0 1.1 -2147483648.0 32 128
- 1.12 1 2 cbr 210 ------- 0 1.1 -2147483648.0 32 128
+ 1.12 1 3 cbr 210 ------- 0 1.1 -2147483648.0 32 128
- 1.12 1 3 cbr 210 ------- 0 1.1 -2147483648.0 32 128