v 0.2 eval {set sim_annotation {0.20000000000000001 3 join-group 2147483648}}
+ 0.3 0 1 cbr 210 ------- 0 0.1 -2147483648.0 0 0
- 0.3 0 1 cbr 210 ------- 0 0.1 -2147483648.0 0 0
+ 0.3 0 2 cbr 210 ------- 0 0.1 -2147483648.0 0 0
- 0.3 0 2 cbr 210 ------- 0 0.1 -2147483648.0 0 0
+ 0.30375 0 1 cbr 210 ------- 0 0.1 -2147483648.0 1 1
- 0.30375 0 1 cbr 210 ------- 0 0.1 -2147483648.0 1 1
+ 0.30375 0 2 cbr 210 ------- 0 0.1 -2147483648.0 1 1
- 0.30375 0 2 cbr 210 ------- 0 0.1 -2147483648.0 1 1
+ 0.3075 0 1 cbr 210 ------- 0 0.1 -2147483648.0 2 2
- 0.3075 0 1 cbr 210 ------- 0 0.1 -2147483648.0 2 2
+ 0.3075 0 2 cbr 210 ------- 0 0.1 -2147483648.0 2 2
- 0.3075 0 2 cbr 210 ------- 0 0.1 -2147483648.0 2 2
r 0.31112 0 1 cbr 210 ------- 0 0.1 -2147483648.0 0 0
+ 0.31112 1 3 cbr 210 ------- 0 0.1 -2147483648.0 0 0
- 0.31112 1 3 cbr 210 ------- 0 0.1 -2147483648.0 0 0
+ 0.31112 1 4 cbr 210 ------- 0 0.1 -2147483648.0 0 0
- 0.31112 1 4 cbr 210 ------- 0 0.1 -2147483648.0 0 0
r 0.31112 0 2 cbr 210 ------- 0 0.1 -2147483648.0 0 0
+ 0.31112 2 4 cbr 210 ------- 0 0.1 -2147483648.0 0 0
- 0.31112 2 4 cbr 210 ------- 0 0.1 -2147483648.0 0 0
+ 0.31112 2 5 cbr 210 ------- 0 0.1 -2147483648.0 0 0
- 0.31112 2 5 cbr 210 ------- 0 0.1 -2147483648.0 0 0
+ 0.31125 0 1 cbr 210 ------- 0 0.1 -2147483648.0 3 3
- 0.31125 0 1 cbr 210 ------- 0 0.1 -2147483648.0 3 3
+ 0.31125 0 2 cbr 210 ------- 0 0.1 -2147483648.0 3 3
- 0.31125 0 2 cbr 210 ------- 0 0.1 -2147483648.0 3 3
r 0.31487 0 1 cbr 210 ------- 0 0.1 -2147483648.0 1 1
+ 0.31487 1 3 cbr 210 ------- 0 0.1 -2147483648.0 1 1
- 0.31487 1 3 cbr 210 ------- 0 0.1 -2147483648.0 1 1
+ 0.31487 1 4 cbr 210 ------- 0 0.1 -2147483648.0 1 1
- 0.31487 1 4 cbr 210 ------- 0 0.1 -2147483648.0 1 1
r 0.31487 0 2 cbr 210 ------- 0 0.1 -2147483648.0 1 1
+ 0.31487 2 4 cbr 210 ------- 0 0.1 -2147483648.0 1 1
- 0.31487 2 4 cbr 210 ------- 0 0.1 -2147483648.0 1 1
+ 0.31487 2 5 cbr 210 ------- 0 0.1 -2147483648.0 1 1
- 0.31487 2 5 cbr 210 ------- 0 0.1 -2147483648.0 1 1
+ 0.315 0 1 cbr 210 ------- 0 0.1 -2147483648.0 4 4
- 0.315 0 1 cbr 210 ------- 0 0.1 -2147483648.0 4 4
+ 0.315 0 2 cbr 210 ------- 0 0.1 -2147483648.0 4 4
- 0.315 0 2 cbr 210 ------- 0 0.1 -2147483648.0 4 4
r 0.31862 0 1 cbr 210 ------- 0 0.1 -2147483648.0 2 2
+ 0.31862 1 3 cbr 210 ------- 0 0.1 -2147483648.0 2 2
- 0.31862 1 3 cbr 210 ------- 0 0.1 -2147483648.0 2 2
+ 0.31862 1 4 cbr 210 ------- 0 0.1 -2147483648.0 2 2
- 0.31862 1 4 cbr 210 ------- 0 0.1 -2147483648.0 2 2
r 0.31862 0 2 cbr 210 ------- 0 0.1 -2147483648.0 2 2
+ 0.31862 2 4 cbr 210 ------- 0 0.1 -2147483648.0 2 2
- 0.31862 2 4 cbr 210 ------- 0 0.1 -2147483648.0 2 2
+ 0.31862 2 5 cbr 210 ------- 0 0.1 -2147483648.0 2 2
- 0.31862 2 5 cbr 210 ------- 0 0.1 -2147483648.0 2 2
+ 0.31875 0 1 cbr 210 ------- 0 0.1 -2147483648.0 5 5
- 0.31875 0 1 cbr 210 ------- 0 0.1 -2147483648.0 5 5
+ 0.31875 0 2 cbr 210 ------- 0 0.1 -2147483648.0 5 5
- 0.31875 0 2 cbr 210 ------- 0 0.1 -2147483648.0 5 5
r 0.32224 1 3 cbr 210 ------- 0 0.1 -2147483648.0 0 0
+ 0.32224 3 1 prune 80 ------- 30 3.0 1.0 -1 6
- 0.32224 3 1 prune 80 ------- 30 3.0 1.0 -1 6
r 0.32224 1 4 cbr 210 ------- 0 0.1 -2147483648.0 0 0
+ 0.32224 4 2 cbr 210 ------- 0 0.1 -2147483648.0 0 0
- 0.32224 4 2 cbr 210 ------- 0 0.1 -2147483648.0 0 0
r 0.32224 2 4 cbr 210 ------- 0 0.1 -2147483648.0 0 0
+ 0.32224 4 2 prune 80 ------- 30 4.0 2.0 -1 7
r 0.32224 2 5 cbr 210 ------- 0 0.1 -2147483648.0 0 0
+ 0.32224 5 2 prune 80 ------- 30 5.0 2.0 -1 8
- 0.32224 5 2 prune 80 ------- 30 5.0 2.0 -1 8
r 0.32237 0 1 cbr 210 ------- 0 0.1 -2147483648.0 3 3
+ 0.32237 1 3 cbr 210 ------- 0 0.1 -2147483648.0 3 3
- 0.32237 1 3 cbr 210 ------- 0 0.1 -2147483648.0 3 3
+ 0.32237 1 4 cbr 210 ------- 0 0.1 -2147483648.0 3 3
- 0.32237 1 4 cbr 210 ------- 0 0.1 -2147483648.0 3 3
r 0.32237 0 2 cbr 210 ------- 0 0.1 -2147483648.0 3 3
+ 0.32237 2 4 cbr 210 ------- 0 0.1 -2147483648.0 3 3
- 0.32237 2 4 cbr 210 ------- 0 0.1 -2147483648.0 3 3
+ 0.32237 2 5 cbr 210 ------- 0 0.1 -2147483648.0 3 3
- 0.32237 2 5 cbr 210 ------- 0 0.1 -2147483648.0 3 3
+ 0.3225 0 1 cbr 210 ------- 0 0.1 -2147483648.0 6 9
- 0.3225 0 1 cbr 210 ------- 0 0.1 -2147483648.0 6 9
+ 0.3225 0 2 cbr 210 ------- 0 0.1 -2147483648.0 6 9
- 0.3225 0 2 cbr 210 ------- 0 0.1 -2147483648.0 6 9
- 0.32336 4 2 prune 80 ------- 30 4.0 2.0 -1 7
r 0.32599 1 3 cbr 210 ------- 0 0.1 -2147483648.0 1 1
+ 0.32599 3 1 prune 80 ------- 30 3.0 1.0 -1 10
- 0.32599 3 1 prune 80 ------- 30 3.0 1.0 -1 10
r 0.32599 1 4 cbr 210 ------- 0 0.1 -2147483648.0 1 1
+ 0.32599 4 2 cbr 210 ------- 0 0.1 -2147483648.0 1 1
- 0.32599 4 2 cbr 210 ------- 0 0.1 -2147483648.0 1 1
r 0.32599 2 4 cbr 210 ------- 0 0.1 -2147483648.0 1 1
+ 0.32599 4 2 prune 80 ------- 30 4.0 2.0 -1 11
r 0.32599 2 5 cbr 210 ------- 0 0.1 -2147483648.0 1 1
+ 0.32599 5 2 prune 80 ------- 30 5.0 2.0 -1 12
- 0.32599 5 2 prune 80 ------- 30 5.0 2.0 -1 12
r 0.32612 0 1 cbr 210 ------- 0 0.1 -2147483648.0 4 4
+ 0.32612 1 3 cbr 210 ------- 0 0.1 -2147483648.0 4 4
- 0.32612 1 3 cbr 210 ------- 0 0.1 -2147483648.0 4 4
+ 0.32612 1 4 cbr 210 ------- 0 0.1 -2147483648.0 4 4
- 0.32612 1 4 cbr 210 ------- 0 0.1 -2147483648.0 4 4
r 0.32612 0 2 cbr 210 ------- 0 0.1 -2147483648.0 4 4
+ 0.32612 2 4 cbr 210 ------- 0 0.1 -2147483648.0 4 4
- 0.32612 2 4 cbr 210 ------- 0 0.1 -2147483648.0 4 4
+ 0.32612 2 5 cbr 210 ------- 0 0.1 -2147483648.0 4 4
- 0.32612 2 5 cbr 210 ------- 0 0.1 -2147483648.0 4 4
+ 0.32625 0 1 cbr 210 ------- 0 0.1 -2147483648.0 7 13
- 0.32625 0 1 cbr 210 ------- 0 0.1 -2147483648.0 7 13
+ 0.32625 0 2 cbr 210 ------- 0 0.1 -2147483648.0 7 13
- 0.32625 0 2 cbr 210 ------- 0 0.1 -2147483648.0 7 13
- 0.32711 4 2 prune 80 ------- 30 4.0 2.0 -1 11
r 0.32974 1 3 cbr 210 ------- 0 0.1 -2147483648.0 2 2
+ 0.32974 3 1 prune 80 ------- 30 3.0 1.0 -1 14
- 0.32974 3 1 prune 80 ------- 30 3.0 1.0 -1 14
r 0.32974 1 4 cbr 210 ------- 0 0.1 -2147483648.0 2 2
+ 0.32974 4 2 cbr 210 ------- 0 0.1 -2147483648.0 2 2
- 0.32974 4 2 cbr 210 ------- 0 0.1 -2147483648.0 2 2
r 0.32974 2 4 cbr 210 ------- 0 0.1 -2147483648.0 2 2
+ 0.32974 4 2 prune 80 ------- 30 4.0 2.0 -1 15
r 0.32974 2 5 cbr 210 ------- 0 0.1 -2147483648.0 2 2
+ 0.32974 5 2 prune 80 ------- 30 5.0 2.0 -1 16
- 0.32974 5 2 prune 80 ------- 30 5.0 2.0 -1 16
r 0.32987 0 1 cbr 210 ------- 0 0.1 -2147483648.0 5 5
+ 0.32987 1 3 cbr 210 ------- 0 0.1 -2147483648.0 5 5
- 0.32987 1 3 cbr 210 ------- 0 0.1 -2147483648.0 5 5
+ 0.32987 1 4 cbr 210 ------- 0 0.1 -2147483648.0 5 5
- 0.32987 1 4 cbr 210 ------- 0 0.1 -2147483648.0 5 5
r 0.32987 0 2 cbr 210 ------- 0 0.1 -2147483648.0 5 5
+ 0.32987 2 4 cbr 210 ------- 0 0.1 -2147483648.0 5 5
- 0.32987 2 4 cbr 210 ------- 0 0.1 -2147483648.0 5 5
+ 0.32987 2 5 cbr 210 ------- 0 0.1 -2147483648.0 5 5
- 0.32987 2 5 cbr 210 ------- 0 0.1 -2147483648.0 5 5
+ 0.33 0 1 cbr 210 ------- 0 0.1 -2147483648.0 8 17
- 0.33 0 1 cbr 210 ------- 0 0.1 -2147483648.0 8 17
+ 0.33 0 2 cbr 210 ------- 0 0.1 -2147483648.0 8 17
- 0.33 0 2 cbr 210 ------- 0 0.1 -2147483648.0 8 17
- 0.33086 4 2 prune 80 ------- 30 4.0 2.0 -1 15
r 0.332667 3 1 prune 80 ------- 30 3.0 1.0 -1 6
r 0.332667 5 2 prune 80 ------- 30 5.0 2.0 -1 8
r 0.33336 4 2 cbr 210 ------- 0 0.1 -2147483648.0 0 0
+ 0.33336 2 4 prune 80 ------- 30 2.0 4.0 -1 18
- 0.33336 2 4 prune 80 ------- 30 2.0 4.0 -1 18
r 0.33349 1 3 cbr 210 ------- 0 0.1 -2147483648.0 3 3
+ 0.33349 3 1 prune 80 ------- 30 3.0 1.0 -1 19
- 0.33349 3 1 prune 80 ------- 30 3.0 1.0 -1 19
r 0.33349 1 4 cbr 210 ------- 0 0.1 -2147483648.0 3 3
+ 0.33349 4 2 cbr 210 ------- 0 0.1 -2147483648.0 3 3
- 0.33349 4 2 cbr 210 ------- 0 0.1 -2147483648.0 3 3
r 0.33349 2 4 cbr 210 ------- 0 0.1 -2147483648.0 3 3
+ 0.33349 4 2 prune 80 ------- 30 4.0 2.0 -1 20
r 0.33349 2 5 cbr 210 ------- 0 0.1 -2147483648.0 3 3
+ 0.33349 5 2 prune 80 ------- 30 5.0 2.0 -1 21
- 0.33349 5 2 prune 80 ------- 30 5.0 2.0 -1 21
r 0.33362 0 1 cbr 210 ------- 0 0.1 -2147483648.0 6 9
+ 0.33362 1 3 cbr 210 ------- 0 0.1 -2147483648.0 6 9
- 0.33362 1 3 cbr 210 ------- 0 0.1 -2147483648.0 6 9
+ 0.33362 1 4 cbr 210 ------- 0 0.1 -2147483648.0 6 9
- 0.33362 1 4 cbr 210 ------- 0 0.1 -2147483648.0 6 9
r 0.33362 0 2 cbr 210 ------- 0 0.1 -2147483648.0 6 9
+ 0.33362 2 4 cbr 210 ------- 0 0.1 -2147483648.0 6 9
+ 0.33362 2 5 cbr 210 ------- 0 0.1 -2147483648.0 6 9
- 0.33362 2 5 cbr 210 ------- 0 0.1 -2147483648.0 6 9
+ 0.33375 0 1 cbr 210 ------- 0 0.1 -2147483648.0 9 22
- 0.33375 0 1 cbr 210 ------- 0 0.1 -2147483648.0 9 22
+ 0.33375 0 2 cbr 210 ------- 0 0.1 -2147483648.0 9 22
- 0.33375 0 2 cbr 210 ------- 0 0.1 -2147483648.0 9 22
r 0.333787 4 2 prune 80 ------- 30 4.0 2.0 -1 7
- 0.333787 2 4 cbr 210 ------- 0 0.1 -2147483648.0 6 9
- 0.33461 4 2 prune 80 ------- 30 4.0 2.0 -1 20
r 0.336417 3 1 prune 80 ------- 30 3.0 1.0 -1 10
r 0.336417 5 2 prune 80 ------- 30 5.0 2.0 -1 12
r 0.33711 4 2 cbr 210 ------- 0 0.1 -2147483648.0 1 1
+ 0.33711 2 4 prune 80 ------- 30 2.0 4.0 -1 23
- 0.33711 2 4 prune 80 ------- 30 2.0 4.0 -1 23
r 0.33724 1 3 cbr 210 ------- 0 0.1 -2147483648.0 4 4
+ 0.33724 3 1 prune 80 ------- 30 3.0 1.0 -1 24
- 0.33724 3 1 prune 80 ------- 30 3.0 1.0 -1 24
r 0.33724 1 4 cbr 210 ------- 0 0.1 -2147483648.0 4 4
+ 0.33724 4 2 cbr 210 ------- 0 0.1 -2147483648.0 4 4
- 0.33724 4 2 cbr 210 ------- 0 0.1 -2147483648.0 4 4
r 0.33724 2 4 cbr 210 ------- 0 0.1 -2147483648.0 4 4
+ 0.33724 4 2 prune 80 ------- 30 4.0 2.0 -1 25
r 0.33724 2 5 cbr 210 ------- 0 0.1 -2147483648.0 4 4
+ 0.33724 5 2 prune 80 ------- 30 5.0 2.0 -1 26
- 0.33724 5 2 prune 80 ------- 30 5.0 2.0 -1 26
r 0.33737 0 1 cbr 210 ------- 0 0.1 -2147483648.0 7 13
+ 0.33737 1 3 cbr 210 ------- 0 0.1 -2147483648.0 7 13
- 0.33737 1 3 cbr 210 ------- 0 0.1 -2147483648.0 7 13
+ 0.33737 1 4 cbr 210 ------- 0 0.1 -2147483648.0 7 13
- 0.33737 1 4 cbr 210 ------- 0 0.1 -2147483648.0 7 13
r 0.33737 0 2 cbr 210 ------- 0 0.1 -2147483648.0 7 13
+ 0.33737 2 5 cbr 210 ------- 0 0.1 -2147483648.0 7 13
- 0.33737 2 5 cbr 210 ------- 0 0.1 -2147483648.0 7 13
+ 0.3375 0 1 cbr 210 ------- 0 0.1 -2147483648.0 10 27
- 0.3375 0 1 cbr 210 ------- 0 0.1 -2147483648.0 10 27
+ 0.3375 0 2 cbr 210 ------- 0 0.1 -2147483648.0 10 27
- 0.3375 0 2 cbr 210 ------- 0 0.1 -2147483648.0 10 27
r 0.337537 4 2 prune 80 ------- 30 4.0 2.0 -1 11
- 0.33836 4 2 prune 80 ------- 30 4.0 2.0 -1 25
r 0.340167 3 1 prune 80 ------- 30 3.0 1.0 -1 14
r 0.340167 5 2 prune 80 ------- 30 5.0 2.0 -1 16
r 0.34086 4 2 cbr 210 ------- 0 0.1 -2147483648.0 2 2
+ 0.34086 2 4 prune 80 ------- 30 2.0 4.0 -1 28
- 0.34086 2 4 prune 80 ------- 30 2.0 4.0 -1 28
r 0.34099 1 3 cbr 210 ------- 0 0.1 -2147483648.0 5 5
+ 0.34099 3 1 prune 80 ------- 30 3.0 1.0 -1 29
- 0.34099 3 1 prune 80 ------- 30 3.0 1.0 -1 29
r 0.34099 1 4 cbr 210 ------- 0 0.1 -2147483648.0 5 5
+ 0.34099 4 2 cbr 210 ------- 0 0.1 -2147483648.0 5 5
- 0.34099 4 2 cbr 210 ------- 0 0.1 -2147483648.0 5 5
r 0.34099 2 4 cbr 210 ------- 0 0.1 -2147483648.0 5 5
+ 0.34099 4 2 prune 80 ------- 30 4.0 2.0 -1 30
r 0.34099 2 5 cbr 210 ------- 0 0.1 -2147483648.0 5 5
+ 0.34099 5 2 prune 80 ------- 30 5.0 2.0 -1 31
- 0.34099 5 2 prune 80 ------- 30 5.0 2.0 -1 31
r 0.34112 0 1 cbr 210 ------- 0 0.1 -2147483648.0 8 17
+ 0.34112 1 3 cbr 210 ------- 0 0.1 -2147483648.0 8 17
- 0.34112 1 3 cbr 210 ------- 0 0.1 -2147483648.0 8 17
+ 0.34112 1 4 cbr 210 ------- 0 0.1 -2147483648.0 8 17
- 0.34112 1 4 cbr 210 ------- 0 0.1 -2147483648.0 8 17
r 0.34112 0 2 cbr 210 ------- 0 0.1 -2147483648.0 8 17
+ 0.34112 2 5 cbr 210 ------- 0 0.1 -2147483648.0 8 17
- 0.34112 2 5 cbr 210 ------- 0 0.1 -2147483648.0 8 17
+ 0.34125 0 1 cbr 210 ------- 0 0.1 -2147483648.0 11 32
- 0.34125 0 1 cbr 210 ------- 0 0.1 -2147483648.0 11 32
+ 0.34125 0 2 cbr 210 ------- 0 0.1 -2147483648.0 11 32
- 0.34125 0 2 cbr 210 ------- 0 0.1 -2147483648.0 11 32
r 0.341287 4 2 prune 80 ------- 30 4.0 2.0 -1 15
- 0.34211 4 2 prune 80 ------- 30 4.0 2.0 -1 30
r 0.343787 2 4 prune 80 ------- 30 2.0 4.0 -1 18
+ 0.343787 4 1 prune 80 ------- 30 4.0 1.0 -1 33
- 0.343787 4 1 prune 80 ------- 30 4.0 1.0 -1 33
r 0.343917 3 1 prune 80 ------- 30 3.0 1.0 -1 19
r 0.343917 5 2 prune 80 ------- 30 5.0 2.0 -1 21
r 0.34461 4 2 cbr 210 ------- 0 0.1 -2147483648.0 3 3
+ 0.34461 2 4 prune 80 ------- 30 2.0 4.0 -1 34
- 0.34461 2 4 prune 80 ------- 30 2.0 4.0 -1 34
r 0.34474 1 3 cbr 210 ------- 0 0.1 -2147483648.0 6 9
+ 0.34474 3 1 prune 80 ------- 30 3.0 1.0 -1 35
- 0.34474 3 1 prune 80 ------- 30 3.0 1.0 -1 35
r 0.34474 1 4 cbr 210 ------- 0 0.1 -2147483648.0 6 9
+ 0.34474 4 1 prune 80 ------- 30 4.0 1.0 -1 36
- 0.34474 4 1 prune 80 ------- 30 4.0 1.0 -1 36
r 0.34474 2 5 cbr 210 ------- 0 0.1 -2147483648.0 6 9
+ 0.34474 5 2 prune 80 ------- 30 5.0 2.0 -1 37
- 0.34474 5 2 prune 80 ------- 30 5.0 2.0 -1 37
r 0.34487 0 1 cbr 210 ------- 0 0.1 -2147483648.0 9 22
+ 0.34487 1 3 cbr 210 ------- 0 0.1 -2147483648.0 9 22
- 0.34487 1 3 cbr 210 ------- 0 0.1 -2147483648.0 9 22
+ 0.34487 1 4 cbr 210 ------- 0 0.1 -2147483648.0 9 22
- 0.34487 1 4 cbr 210 ------- 0 0.1 -2147483648.0 9 22
r 0.34487 0 2 cbr 210 ------- 0 0.1 -2147483648.0 9 22
+ 0.34487 2 5 cbr 210 ------- 0 0.1 -2147483648.0 9 22
- 0.34487 2 5 cbr 210 ------- 0 0.1 -2147483648.0 9 22
r 0.344907 2 4 cbr 210 ------- 0 0.1 -2147483648.0 6 9
+ 0.344907 4 2 prune 80 ------- 30 4.0 2.0 -1 38
- 0.344907 4 2 prune 80 ------- 30 4.0 2.0 -1 38
+ 0.345 0 1 cbr 210 ------- 0 0.1 -2147483648.0 12 39
- 0.345 0 1 cbr 210 ------- 0 0.1 -2147483648.0 12 39
+ 0.345 0 2 cbr 210 ------- 0 0.1 -2147483648.0 12 39
- 0.345 0 2 cbr 210 ------- 0 0.1 -2147483648.0 12 39
r 0.345037 4 2 prune 80 ------- 30 4.0 2.0 -1 20
r 0.347537 2 4 prune 80 ------- 30 2.0 4.0 -1 23
r 0.347667 3 1 prune 80 ------- 30 3.0 1.0 -1 24
r 0.347667 5 2 prune 80 ------- 30 5.0 2.0 -1 26
r 0.34836 4 2 cbr 210 ------- 0 0.1 -2147483648.0 4 4
+ 0.34836 2 4 prune 80 ------- 30 2.0 4.0 -1 40
- 0.34836 2 4 prune 80 ------- 30 2.0 4.0 -1 40
r 0.34849 1 3 cbr 210 ------- 0 0.1 -2147483648.0 7 13
+ 0.34849 3 1 prune 80 ------- 30 3.0 1.0 -1 41
- 0.34849 3 1 prune 80 ------- 30 3.0 1.0 -1 41
r 0.34849 1 4 cbr 210 ------- 0 0.1 -2147483648.0 7 13
+ 0.34849 4 1 prune 80 ------- 30 4.0 1.0 -1 42
- 0.34849 4 1 prune 80 ------- 30 4.0 1.0 -1 42
r 0.34849 2 5 cbr 210 ------- 0 0.1 -2147483648.0 7 13
+ 0.34849 5 2 prune 80 ------- 30 5.0 2.0 -1 43
- 0.34849 5 2 prune 80 ------- 30 5.0 2.0 -1 43
r 0.34862 0 1 cbr 210 ------- 0 0.1 -2147483648.0 10 27
+ 0.34862 1 3 cbr 210 ------- 0 0.1 -2147483648.0 10 27
- 0.34862 1 3 cbr 210 ------- 0 0.1 -2147483648.0 10 27
+ 0.34862 1 4 cbr 210 ------- 0 0.1 -2147483648.0 10 27
- 0.34862 1 4 cbr 210 ------- 0 0.1 -2147483648.0 10 27
r 0.34862 0 2 cbr 210 ------- 0 0.1 -2147483648.0 10 27
+ 0.34862 2 5 cbr 210 ------- 0 0.1 -2147483648.0 10 27
- 0.34862 2 5 cbr 210 ------- 0 0.1 -2147483648.0 10 27
+ 0.34875 0 1 cbr 210 ------- 0 0.1 -2147483648.0 13 44
- 0.34875 0 1 cbr 210 ------- 0 0.1 -2147483648.0 13 44
+ 0.34875 0 2 cbr 210 ------- 0 0.1 -2147483648.0 13 44
- 0.34875 0 2 cbr 210 ------- 0 0.1 -2147483648.0 13 44
r 0.348787 4 2 prune 80 ------- 30 4.0 2.0 -1 25
r 0.351287 2 4 prune 80 ------- 30 2.0 4.0 -1 28
r 0.351417 3 1 prune 80 ------- 30 3.0 1.0 -1 29
r 0.351417 5 2 prune 80 ------- 30 5.0 2.0 -1 31
r 0.35211 4 2 cbr 210 ------- 0 0.1 -2147483648.0 5 5
+ 0.35211 2 4 prune 80 ------- 30 2.0 4.0 -1 45
- 0.35211 2 4 prune 80 ------- 30 2.0 4.0 -1 45
r 0.35224 1 3 cbr 210 ------- 0 0.1 -2147483648.0 8 17
+ 0.35224 3 1 prune 80 ------- 30 3.0 1.0 -1 46
- 0.35224 3 1 prune 80 ------- 30 3.0 1.0 -1 46
r 0.35224 1 4 cbr 210 ------- 0 0.1 -2147483648.0 8 17
+ 0.35224 4 1 prune 80 ------- 30 4.0 1.0 -1 47
- 0.35224 4 1 prune 80 ------- 30 4.0 1.0 -1 47
r 0.35224 2 5 cbr 210 ------- 0 0.1 -2147483648.0 8 17
+ 0.35224 5 2 prune 80 ------- 30 5.0 2.0 -1 48
- 0.35224 5 2 prune 80 ------- 30 5.0 2.0 -1 48
r 0.35237 0 1 cbr 210 ------- 0 0.1 -2147483648.0 11 32
+ 0.35237 1 3 cbr 210 ------- 0 0.1 -2147483648.0 11 32
- 0.35237 1 3 cbr 210 ------- 0 0.1 -2147483648.0 11 32
+ 0.35237 1 4 cbr 210 ------- 0 0.1 -2147483648.0 11 32
- 0.35237 1 4 cbr 210 ------- 0 0.1 -2147483648.0 11 32
r 0.35237 0 2 cbr 210 ------- 0 0.1 -2147483648.0 11 32
+ 0.35237 2 5 cbr 210 ------- 0 0.1 -2147483648.0 11 32
- 0.35237 2 5 cbr 210 ------- 0 0.1 -2147483648.0 11 32
+ 0.3525 0 1 cbr 210 ------- 0 0.1 -2147483648.0 14 49
- 0.3525 0 1 cbr 210 ------- 0 0.1 -2147483648.0 14 49
+ 0.3525 0 2 cbr 210 ------- 0 0.1 -2147483648.0 14 49
- 0.3525 0 2 cbr 210 ------- 0 0.1 -2147483648.0 14 49
r 0.352537 4 2 prune 80 ------- 30 4.0 2.0 -1 30
r 0.354213 4 1 prune 80 ------- 30 4.0 1.0 -1 33
r 0.355037 2 4 prune 80 ------- 30 2.0 4.0 -1 34
r 0.355167 3 1 prune 80 ------- 30 3.0 1.0 -1 35
r 0.355167 4 1 prune 80 ------- 30 4.0 1.0 -1 36
r 0.355167 5 2 prune 80 ------- 30 5.0 2.0 -1 37
r 0.355333 4 2 prune 80 ------- 30 4.0 2.0 -1 38
r 0.35599 1 3 cbr 210 ------- 0 0.1 -2147483648.0 9 22
+ 0.35599 3 1 prune 80 ------- 30 3.0 1.0 -1 50
- 0.35599 3 1 prune 80 ------- 30 3.0 1.0 -1 50
r 0.35599 1 4 cbr 210 ------- 0 0.1 -2147483648.0 9 22
+ 0.35599 4 1 prune 80 ------- 30 4.0 1.0 -1 51
- 0.35599 4 1 prune 80 ------- 30 4.0 1.0 -1 51
r 0.35599 2 5 cbr 210 ------- 0 0.1 -2147483648.0 9 22
+ 0.35599 5 2 prune 80 ------- 30 5.0 2.0 -1 52
- 0.35599 5 2 prune 80 ------- 30 5.0 2.0 -1 52
r 0.35612 0 1 cbr 210 ------- 0 0.1 -2147483648.0 12 39
+ 0.35612 1 3 cbr 210 ------- 0 0.1 -2147483648.0 12 39
- 0.35612 1 3 cbr 210 ------- 0 0.1 -2147483648.0 12 39
r 0.35612 0 2 cbr 210 ------- 0 0.1 -2147483648.0 12 39
+ 0.35612 2 5 cbr 210 ------- 0 0.1 -2147483648.0 12 39
- 0.35612 2 5 cbr 210 ------- 0 0.1 -2147483648.0 12 39
+ 0.35625 0 1 cbr 210 ------- 0 0.1 -2147483648.0 15 53
- 0.35625 0 1 cbr 210 ------- 0 0.1 -2147483648.0 15 53
+ 0.35625 0 2 cbr 210 ------- 0 0.1 -2147483648.0 15 53
- 0.35625 0 2 cbr 210 ------- 0 0.1 -2147483648.0 15 53
r 0.358787 2 4 prune 80 ------- 30 2.0 4.0 -1 40
r 0.358917 3 1 prune 80 ------- 30 3.0 1.0 -1 41
r 0.358917 4 1 prune 80 ------- 30 4.0 1.0 -1 42
r 0.358917 5 2 prune 80 ------- 30 5.0 2.0 -1 43
r 0.35974 1 3 cbr 210 ------- 0 0.1 -2147483648.0 10 27
+ 0.35974 3 1 prune 80 ------- 30 3.0 1.0 -1 54
- 0.35974 3 1 prune 80 ------- 30 3.0 1.0 -1 54
r 0.35974 1 4 cbr 210 ------- 0 0.1 -2147483648.0 10 27
+ 0.35974 4 1 prune 80 ------- 30 4.0 1.0 -1 55
- 0.35974 4 1 prune 80 ------- 30 4.0 1.0 -1 55
r 0.35974 2 5 cbr 210 ------- 0 0.1 -2147483648.0 10 27
+ 0.35974 5 2 prune 80 ------- 30 5.0 2.0 -1 56
- 0.35974 5 2 prune 80 ------- 30 5.0 2.0 -1 56
r 0.35987 0 1 cbr 210 ------- 0 0.1 -2147483648.0 13 44
+ 0.35987 1 3 cbr 210 ------- 0 0.1 -2147483648.0 13 44
- 0.35987 1 3 cbr 210 ------- 0 0.1 -2147483648.0 13 44
r 0.35987 0 2 cbr 210 ------- 0 0.1 -2147483648.0 13 44
+ 0.35987 2 5 cbr 210 ------- 0 0.1 -2147483648.0 13 44
- 0.35987 2 5 cbr 210 ------- 0 0.1 -2147483648.0 13 44
+ 0.36 0 1 cbr 210 ------- 0 0.1 -2147483648.0 16 57
- 0.36 0 1 cbr 210 ------- 0 0.1 -2147483648.0 16 57
+ 0.36 0 2 cbr 210 ------- 0 0.1 -2147483648.0 16 57
- 0.36 0 2 cbr 210 ------- 0 0.1 -2147483648.0 16 57
r 0.362537 2 4 prune 80 ------- 30 2.0 4.0 -1 45
r 0.362667 3 1 prune 80 ------- 30 3.0 1.0 -1 46
r 0.362667 4 1 prune 80 ------- 30 4.0 1.0 -1 47
r 0.362667 5 2 prune 80 ------- 30 5.0 2.0 -1 48
r 0.36349 1 3 cbr 210 ------- 0 0.1 -2147483648.0 11 32
+ 0.36349 3 1 prune 80 ------- 30 3.0 1.0 -1 58
- 0.36349 3 1 prune 80 ------- 30 3.0 1.0 -1 58
r 0.36349 1 4 cbr 210 ------- 0 0.1 -2147483648.0 11 32
+ 0.36349 4 1 prune 80 ------- 30 4.0 1.0 -1 59
- 0.36349 4 1 prune 80 ------- 30 4.0 1.0 -1 59
r 0.36349 2 5 cbr 210 ------- 0 0.1 -2147483648.0 11 32
+ 0.36349 5 2 prune 80 ------- 30 5.0 2.0 -1 60
- 0.36349 5 2 prune 80 ------- 30 5.0 2.0 -1 60
r 0.36362 0 1 cbr 210 ------- 0 0.1 -2147483648.0 14 49
+ 0.36362 1 3 cbr 210 ------- 0 0.1 -2147483648.0 14 49
- 0.36362 1 3 cbr 210 ------- 0 0.1 -2147483648.0 14 49
r 0.36362 0 2 cbr 210 ------- 0 0.1 -2147483648.0 14 49
+ 0.36362 2 5 cbr 210 ------- 0 0.1 -2147483648.0 14 49
- 0.36362 2 5 cbr 210 ------- 0 0.1 -2147483648.0 14 49
+ 0.36375 0 1 cbr 210 ------- 0 0.1 -2147483648.0 17 61
- 0.36375 0 1 cbr 210 ------- 0 0.1 -2147483648.0 17 61
+ 0.36375 0 2 cbr 210 ------- 0 0.1 -2147483648.0 17 61
- 0.36375 0 2 cbr 210 ------- 0 0.1 -2147483648.0 17 61
r 0.366417 3 1 prune 80 ------- 30 3.0 1.0 -1 50
r 0.366417 4 1 prune 80 ------- 30 4.0 1.0 -1 51
r 0.366417 5 2 prune 80 ------- 30 5.0 2.0 -1 52
r 0.36724 1 3 cbr 210 ------- 0 0.1 -2147483648.0 12 39
+ 0.36724 3 1 prune 80 ------- 30 3.0 1.0 -1 62
- 0.36724 3 1 prune 80 ------- 30 3.0 1.0 -1 62
r 0.36724 2 5 cbr 210 ------- 0 0.1 -2147483648.0 12 39
+ 0.36724 5 2 prune 80 ------- 30 5.0 2.0 -1 63
- 0.36724 5 2 prune 80 ------- 30 5.0 2.0 -1 63
r 0.36737 0 1 cbr 210 ------- 0 0.1 -2147483648.0 15 53
+ 0.36737 1 3 cbr 210 ------- 0 0.1 -2147483648.0 15 53
- 0.36737 1 3 cbr 210 ------- 0 0.1 -2147483648.0 15 53
r 0.36737 0 2 cbr 210 ------- 0 0.1 -2147483648.0 15 53
+ 0.36737 2 5 cbr 210 ------- 0 0.1 -2147483648.0 15 53
- 0.36737 2 5 cbr 210 ------- 0 0.1 -2147483648.0 15 53
+ 0.3675 0 1 cbr 210 ------- 0 0.1 -2147483648.0 18 64
- 0.3675 0 1 cbr 210 ------- 0 0.1 -2147483648.0 18 64
+ 0.3675 0 2 cbr 210 ------- 0 0.1 -2147483648.0 18 64
- 0.3675 0 2 cbr 210 ------- 0 0.1 -2147483648.0 18 64
r 0.370167 3 1 prune 80 ------- 30 3.0 1.0 -1 54
r 0.370167 4 1 prune 80 ------- 30 4.0 1.0 -1 55
r 0.370167 5 2 prune 80 ------- 30 5.0 2.0 -1 56
r 0.37099 1 3 cbr 210 ------- 0 0.1 -2147483648.0 13 44
+ 0.37099 3 1 prune 80 ------- 30 3.0 1.0 -1 65
- 0.37099 3 1 prune 80 ------- 30 3.0 1.0 -1 65
r 0.37099 2 5 cbr 210 ------- 0 0.1 -2147483648.0 13 44
+ 0.37099 5 2 prune 80 ------- 30 5.0 2.0 -1 66
- 0.37099 5 2 prune 80 ------- 30 5.0 2.0 -1 66
r 0.37112 0 1 cbr 210 ------- 0 0.1 -2147483648.0 16 57
+ 0.37112 1 3 cbr 210 ------- 0 0.1 -2147483648.0 16 57
- 0.37112 1 3 cbr 210 ------- 0 0.1 -2147483648.0 16 57
r 0.37112 0 2 cbr 210 ------- 0 0.1 -2147483648.0 16 57
+ 0.37112 2 5 cbr 210 ------- 0 0.1 -2147483648.0 16 57
- 0.37112 2 5 cbr 210 ------- 0 0.1 -2147483648.0 16 57
+ 0.37125 0 1 cbr 210 ------- 0 0.1 -2147483648.0 19 67
- 0.37125 0 1 cbr 210 ------- 0 0.1 -2147483648.0 19 67
+ 0.37125 0 2 cbr 210 ------- 0 0.1 -2147483648.0 19 67
- 0.37125 0 2 cbr 210 ------- 0 0.1 -2147483648.0 19 67
r 0.373917 3 1 prune 80 ------- 30 3.0 1.0 -1 58
r 0.373917 4 1 prune 80 ------- 30 4.0 1.0 -1 59
r 0.373917 5 2 prune 80 ------- 30 5.0 2.0 -1 60
r 0.37474 1 3 cbr 210 ------- 0 0.1 -2147483648.0 14 49
+ 0.37474 3 1 prune 80 ------- 30 3.0 1.0 -1 68
- 0.37474 3 1 prune 80 ------- 30 3.0 1.0 -1 68
r 0.37474 2 5 cbr 210 ------- 0 0.1 -2147483648.0 14 49
+ 0.37474 5 2 prune 80 ------- 30 5.0 2.0 -1 69
- 0.37474 5 2 prune 80 ------- 30 5.0 2.0 -1 69
r 0.37487 0 1 cbr 210 ------- 0 0.1 -2147483648.0 17 61
+ 0.37487 1 3 cbr 210 ------- 0 0.1 -2147483648.0 17 61
- 0.37487 1 3 cbr 210 ------- 0 0.1 -2147483648.0 17 61
r 0.37487 0 2 cbr 210 ------- 0 0.1 -2147483648.0 17 61
+ 0.37487 2 5 cbr 210 ------- 0 0.1 -2147483648.0 17 61
- 0.37487 2 5 cbr 210 ------- 0 0.1 -2147483648.0 17 61
+ 0.375 0 1 cbr 210 ------- 0 0.1 -2147483648.0 20 70
- 0.375 0 1 cbr 210 ------- 0 0.1 -2147483648.0 20 70
+ 0.375 0 2 cbr 210 ------- 0 0.1 -2147483648.0 20 70
- 0.375 0 2 cbr 210 ------- 0 0.1 -2147483648.0 20 70
r 0.377667 3 1 prune 80 ------- 30 3.0 1.0 -1 62
r 0.377667 5 2 prune 80 ------- 30 5.0 2.0 -1 63
r 0.37849 1 3 cbr 210 ------- 0 0.1 -2147483648.0 15 53
+ 0.37849 3 1 prune 80 ------- 30 3.0 1.0 -1 71
- 0.37849 3 1 prune 80 ------- 30 3.0 1.0 -1 71
r 0.37849 2 5 cbr 210 ------- 0 0.1 -2147483648.0 15 53
+ 0.37849 5 2 prune 80 ------- 30 5.0 2.0 -1 72
- 0.37849 5 2 prune 80 ------- 30 5.0 2.0 -1 72
r 0.37862 0 1 cbr 210 ------- 0 0.1 -2147483648.0 18 64
+ 0.37862 1 3 cbr 210 ------- 0 0.1 -2147483648.0 18 64
- 0.37862 1 3 cbr 210 ------- 0 0.1 -2147483648.0 18 64
r 0.37862 0 2 cbr 210 ------- 0 0.1 -2147483648.0 18 64
+ 0.37862 2 5 cbr 210 ------- 0 0.1 -2147483648.0 18 64
- 0.37862 2 5 cbr 210 ------- 0 0.1 -2147483648.0 18 64
+ 0.37875 0 1 cbr 210 ------- 0 0.1 -2147483648.0 21 73
- 0.37875 0 1 cbr 210 ------- 0 0.1 -2147483648.0 21 73
+ 0.37875 0 2 cbr 210 ------- 0 0.1 -2147483648.0 21 73
- 0.37875 0 2 cbr 210 ------- 0 0.1 -2147483648.0 21 73
r 0.381417 3 1 prune 80 ------- 30 3.0 1.0 -1 65
r 0.381417 5 2 prune 80 ------- 30 5.0 2.0 -1 66
r 0.38224 1 3 cbr 210 ------- 0 0.1 -2147483648.0 16 57
+ 0.38224 3 1 prune 80 ------- 30 3.0 1.0 -1 74
- 0.38224 3 1 prune 80 ------- 30 3.0 1.0 -1 74
r 0.38224 2 5 cbr 210 ------- 0 0.1 -2147483648.0 16 57
+ 0.38224 5 2 prune 80 ------- 30 5.0 2.0 -1 75
- 0.38224 5 2 prune 80 ------- 30 5.0 2.0 -1 75
r 0.38237 0 1 cbr 210 ------- 0 0.1 -2147483648.0 19 67
+ 0.38237 1 3 cbr 210 ------- 0 0.1 -2147483648.0 19 67
- 0.38237 1 3 cbr 210 ------- 0 0.1 -2147483648.0 19 67
r 0.38237 0 2 cbr 210 ------- 0 0.1 -2147483648.0 19 67
+ 0.38237 2 5 cbr 210 ------- 0 0.1 -2147483648.0 19 67
- 0.38237 2 5 cbr 210 ------- 0 0.1 -2147483648.0 19 67
+ 0.3825 0 1 cbr 210 ------- 0 0.1 -2147483648.0 22 76
- 0.3825 0 1 cbr 210 ------- 0 0.1 -2147483648.0 22 76
+ 0.3825 0 2 cbr 210 ------- 0 0.1 -2147483648.0 22 76
- 0.3825 0 2 cbr 210 ------- 0 0.1 -2147483648.0 22 76
r 0.385167 3 1 prune 80 ------- 30 3.0 1.0 -1 68
r 0.385167 5 2 prune 80 ------- 30 5.0 2.0 -1 69
r 0.38599 1 3 cbr 210 ------- 0 0.1 -2147483648.0 17 61
+ 0.38599 3 1 prune 80 ------- 30 3.0 1.0 -1 77
- 0.38599 3 1 prune 80 ------- 30 3.0 1.0 -1 77
r 0.38599 2 5 cbr 210 ------- 0 0.1 -2147483648.0 17 61
+ 0.38599 5 2 prune 80 ------- 30 5.0 2.0 -1 78
- 0.38599 5 2 prune 80 ------- 30 5.0 2.0 -1 78
r 0.38612 0 1 cbr 210 ------- 0 0.1 -2147483648.0 20 70
+ 0.38612 1 3 cbr 210 ------- 0 0.1 -2147483648.0 20 70
- 0.38612 1 3 cbr 210 ------- 0 0.1 -2147483648.0 20 70
r 0.38612 0 2 cbr 210 ------- 0 0.1 -2147483648.0 20 70
+ 0.38612 2 5 cbr 210 ------- 0 0.1 -2147483648.0 20 70
- 0.38612 2 5 cbr 210 ------- 0 0.1 -2147483648.0 20 70
+ 0.38625 0 1 cbr 210 ------- 0 0.1 -2147483648.0 23 79
- 0.38625 0 1 cbr 210 ------- 0 0.1 -2147483648.0 23 79
+ 0.38625 0 2 cbr 210 ------- 0 0.1 -2147483648.0 23 79
- 0.38625 0 2 cbr 210 ------- 0 0.1 -2147483648.0 23 79
r 0.388917 3 1 prune 80 ------- 30 3.0 1.0 -1 71
r 0.388917 5 2 prune 80 ------- 30 5.0 2.0 -1 72
r 0.38974 1 3 cbr 210 ------- 0 0.1 -2147483648.0 18 64
+ 0.38974 3 1 prune 80 ------- 30 3.0 1.0 -1 80
- 0.38974 3 1 prune 80 ------- 30 3.0 1.0 -1 80
r 0.38974 2 5 cbr 210 ------- 0 0.1 -2147483648.0 18 64
+ 0.38974 5 2 prune 80 ------- 30 5.0 2.0 -1 81
- 0.38974 5 2 prune 80 ------- 30 5.0 2.0 -1 81
r 0.38987 0 1 cbr 210 ------- 0 0.1 -2147483648.0 21 73
+ 0.38987 1 3 cbr 210 ------- 0 0.1 -2147483648.0 21 73
- 0.38987 1 3 cbr 210 ------- 0 0.1 -2147483648.0 21 73
r 0.38987 0 2 cbr 210 ------- 0 0.1 -2147483648.0 21 73
+ 0.38987 2 5 cbr 210 ------- 0 0.1 -2147483648.0 21 73
- 0.38987 2 5 cbr 210 ------- 0 0.1 -2147483648.0 21 73
+ 0.39 0 1 cbr 210 ------- 0 0.1 -2147483648.0 24 82
- 0.39 0 1 cbr 210 ------- 0 0.1 -2147483648.0 24 82
+ 0.39 0 2 cbr 210 ------- 0 0.1 -2147483648.0 24 82
- 0.39 0 2 cbr 210 ------- 0 0.1 -2147483648.0 24 82
r 0.392667 3 1 prune 80 ------- 30 3.0 1.0 -1 74
r 0.392667 5 2 prune 80 ------- 30 5.0 2.0 -1 75
r 0.39349 1 3 cbr 210 ------- 0 0.1 -2147483648.0 19 67
+ 0.39349 3 1 prune 80 ------- 30 3.0 1.0 -1 83
- 0.39349 3 1 prune 80 ------- 30 3.0 1.0 -1 83
r 0.39349 2 5 cbr 210 ------- 0 0.1 -2147483648.0 19 67
+ 0.39349 5 2 prune 80 ------- 30 5.0 2.0 -1 84
- 0.39349 5 2 prune 80 ------- 30 5.0 2.0 -1 84
r 0.39362 0 1 cbr 210 ------- 0 0.1 -2147483648.0 22 76
+ 0.39362 1 3 cbr 210 ------- 0 0.1 -2147483648.0 22 76
- 0.39362 1 3 cbr 210 ------- 0 0.1 -2147483648.0 22 76
r 0.39362 0 2 cbr 210 ------- 0 0.1 -2147483648.0 22 76
+ 0.39362 2 5 cbr 210 ------- 0 0.1 -2147483648.0 22 76
- 0.39362 2 5 cbr 210 ------- 0 0.1 -2147483648.0 22 76
+ 0.39375 0 1 cbr 210 ------- 0 0.1 -2147483648.0 25 85
- 0.39375 0 1 cbr 210 ------- 0 0.1 -2147483648.0 25 85
+ 0.39375 0 2 cbr 210 ------- 0 0.1 -2147483648.0 25 85
- 0.39375 0 2 cbr 210 ------- 0 0.1 -2147483648.0 25 85
r 0.396417 3 1 prune 80 ------- 30 3.0 1.0 -1 77
r 0.396417 5 2 prune 80 ------- 30 5.0 2.0 -1 78
r 0.39724 1 3 cbr 210 ------- 0 0.1 -2147483648.0 20 70
+ 0.39724 3 1 prune 80 ------- 30 3.0 1.0 -1 86
- 0.39724 3 1 prune 80 ------- 30 3.0 1.0 -1 86
r 0.39724 2 5 cbr 210 ------- 0 0.1 -2147483648.0 20 70
+ 0.39724 5 2 prune 80 ------- 30 5.0 2.0 -1 87
- 0.39724 5 2 prune 80 ------- 30 5.0 2.0 -1 87
r 0.39737 0 1 cbr 210 ------- 0 0.1 -2147483648.0 23 79
+ 0.39737 1 3 cbr 210 ------- 0 0.1 -2147483648.0 23 79
- 0.39737 1 3 cbr 210 ------- 0 0.1 -2147483648.0 23 79
r 0.39737 0 2 cbr 210 ------- 0 0.1 -2147483648.0 23 79
+ 0.39737 2 5 cbr 210 ------- 0 0.1 -2147483648.0 23 79
- 0.39737 2 5 cbr 210 ------- 0 0.1 -2147483648.0 23 79
+ 0.3975 0 1 cbr 210 ------- 0 0.1 -2147483648.0 26 88
- 0.3975 0 1 cbr 210 ------- 0 0.1 -2147483648.0 26 88
+ 0.3975 0 2 cbr 210 ------- 0 0.1 -2147483648.0 26 88
- 0.3975 0 2 cbr 210 ------- 0 0.1 -2147483648.0 26 88
v 0.4 eval {set sim_annotation {0.40000000000000002 4 join-group 2147483648}}
r 0.400167 3 1 prune 80 ------- 30 3.0 1.0 -1 80
r 0.400167 5 2 prune 80 ------- 30 5.0 2.0 -1 81
r 0.40099 1 3 cbr 210 ------- 0 0.1 -2147483648.0 21 73
+ 0.40099 3 1 prune 80 ------- 30 3.0 1.0 -1 89
- 0.40099 3 1 prune 80 ------- 30 3.0 1.0 -1 89
r 0.40099 2 5 cbr 210 ------- 0 0.1 -2147483648.0 21 73
+ 0.40099 5 2 prune 80 ------- 30 5.0 2.0 -1 90
- 0.40099 5 2 prune 80 ------- 30 5.0 2.0 -1 90
r 0.40112 0 1 cbr 210 ------- 0 0.1 -2147483648.0 24 82
+ 0.40112 1 3 cbr 210 ------- 0 0.1 -2147483648.0 24 82
- 0.40112 1 3 cbr 210 ------- 0 0.1 -2147483648.0 24 82
r 0.40112 0 2 cbr 210 ------- 0 0.1 -2147483648.0 24 82
+ 0.40112 2 5 cbr 210 ------- 0 0.1 -2147483648.0 24 82
- 0.40112 2 5 cbr 210 ------- 0 0.1 -2147483648.0 24 82
+ 0.40125 0 1 cbr 210 ------- 0 0.1 -2147483648.0 27 91
- 0.40125 0 1 cbr 210 ------- 0 0.1 -2147483648.0 27 91
+ 0.40125 0 2 cbr 210 ------- 0 0.1 -2147483648.0 27 91