+ 0.1 0 1 cbr 210 ------- 0 0.1 -2147483648.0 0 0
- 0.1 0 1 cbr 210 ------- 0 0.1 -2147483648.0 0 0
+ 0.1 0 2 cbr 210 ------- 0 0.1 -2147483648.0 0 0
- 0.1 0 2 cbr 210 ------- 0 0.1 -2147483648.0 0 0
+ 0.10375 0 1 cbr 210 ------- 0 0.1 -2147483648.0 1 1
- 0.10375 0 1 cbr 210 ------- 0 0.1 -2147483648.0 1 1
+ 0.10375 0 2 cbr 210 ------- 0 0.1 -2147483648.0 1 1
- 0.10375 0 2 cbr 210 ------- 0 0.1 -2147483648.0 1 1
+ 0.1075 0 1 cbr 210 ------- 0 0.1 -2147483648.0 2 2
- 0.1075 0 1 cbr 210 ------- 0 0.1 -2147483648.0 2 2
+ 0.1075 0 2 cbr 210 ------- 0 0.1 -2147483648.0 2 2
- 0.1075 0 2 cbr 210 ------- 0 0.1 -2147483648.0 2 2
r 0.11112 0 1 cbr 210 ------- 0 0.1 -2147483648.0 0 0
+ 0.11112 1 3 cbr 210 ------- 0 0.1 -2147483648.0 0 0
- 0.11112 1 3 cbr 210 ------- 0 0.1 -2147483648.0 0 0
+ 0.11112 1 4 cbr 210 ------- 0 0.1 -2147483648.0 0 0
- 0.11112 1 4 cbr 210 ------- 0 0.1 -2147483648.0 0 0
r 0.11112 0 2 cbr 210 ------- 0 0.1 -2147483648.0 0 0
+ 0.11112 2 4 cbr 210 ------- 0 0.1 -2147483648.0 0 0
- 0.11112 2 4 cbr 210 ------- 0 0.1 -2147483648.0 0 0
+ 0.11112 2 5 cbr 210 ------- 0 0.1 -2147483648.0 0 0
- 0.11112 2 5 cbr 210 ------- 0 0.1 -2147483648.0 0 0
+ 0.11125 0 1 cbr 210 ------- 0 0.1 -2147483648.0 3 3
- 0.11125 0 1 cbr 210 ------- 0 0.1 -2147483648.0 3 3
+ 0.11125 0 2 cbr 210 ------- 0 0.1 -2147483648.0 3 3
- 0.11125 0 2 cbr 210 ------- 0 0.1 -2147483648.0 3 3
r 0.11487 0 1 cbr 210 ------- 0 0.1 -2147483648.0 1 1
+ 0.11487 1 3 cbr 210 ------- 0 0.1 -2147483648.0 1 1
- 0.11487 1 3 cbr 210 ------- 0 0.1 -2147483648.0 1 1
+ 0.11487 1 4 cbr 210 ------- 0 0.1 -2147483648.0 1 1
- 0.11487 1 4 cbr 210 ------- 0 0.1 -2147483648.0 1 1
r 0.11487 0 2 cbr 210 ------- 0 0.1 -2147483648.0 1 1
+ 0.11487 2 4 cbr 210 ------- 0 0.1 -2147483648.0 1 1
- 0.11487 2 4 cbr 210 ------- 0 0.1 -2147483648.0 1 1
+ 0.11487 2 5 cbr 210 ------- 0 0.1 -2147483648.0 1 1
- 0.11487 2 5 cbr 210 ------- 0 0.1 -2147483648.0 1 1
+ 0.115 0 1 cbr 210 ------- 0 0.1 -2147483648.0 4 4
- 0.115 0 1 cbr 210 ------- 0 0.1 -2147483648.0 4 4
+ 0.115 0 2 cbr 210 ------- 0 0.1 -2147483648.0 4 4
- 0.115 0 2 cbr 210 ------- 0 0.1 -2147483648.0 4 4
r 0.11862 0 1 cbr 210 ------- 0 0.1 -2147483648.0 2 2
+ 0.11862 1 3 cbr 210 ------- 0 0.1 -2147483648.0 2 2
- 0.11862 1 3 cbr 210 ------- 0 0.1 -2147483648.0 2 2
+ 0.11862 1 4 cbr 210 ------- 0 0.1 -2147483648.0 2 2
- 0.11862 1 4 cbr 210 ------- 0 0.1 -2147483648.0 2 2
r 0.11862 0 2 cbr 210 ------- 0 0.1 -2147483648.0 2 2
+ 0.11862 2 4 cbr 210 ------- 0 0.1 -2147483648.0 2 2
- 0.11862 2 4 cbr 210 ------- 0 0.1 -2147483648.0 2 2
+ 0.11862 2 5 cbr 210 ------- 0 0.1 -2147483648.0 2 2
- 0.11862 2 5 cbr 210 ------- 0 0.1 -2147483648.0 2 2
+ 0.11875 0 1 cbr 210 ------- 0 0.1 -2147483648.0 5 5
- 0.11875 0 1 cbr 210 ------- 0 0.1 -2147483648.0 5 5
+ 0.11875 0 2 cbr 210 ------- 0 0.1 -2147483648.0 5 5
- 0.11875 0 2 cbr 210 ------- 0 0.1 -2147483648.0 5 5
r 0.12224 1 3 cbr 210 ------- 0 0.1 -2147483648.0 0 0
+ 0.12224 3 1 prune 80 ------- 30 3.0 1.0 -1 6
- 0.12224 3 1 prune 80 ------- 30 3.0 1.0 -1 6
r 0.12224 1 4 cbr 210 ------- 0 0.1 -2147483648.0 0 0
+ 0.12224 4 2 cbr 210 ------- 0 0.1 -2147483648.0 0 0
- 0.12224 4 2 cbr 210 ------- 0 0.1 -2147483648.0 0 0
r 0.12224 2 4 cbr 210 ------- 0 0.1 -2147483648.0 0 0
+ 0.12224 4 2 prune 80 ------- 30 4.0 2.0 -1 7
r 0.12224 2 5 cbr 210 ------- 0 0.1 -2147483648.0 0 0
+ 0.12224 5 2 prune 80 ------- 30 5.0 2.0 -1 8
- 0.12224 5 2 prune 80 ------- 30 5.0 2.0 -1 8
r 0.12237 0 1 cbr 210 ------- 0 0.1 -2147483648.0 3 3
+ 0.12237 1 3 cbr 210 ------- 0 0.1 -2147483648.0 3 3
- 0.12237 1 3 cbr 210 ------- 0 0.1 -2147483648.0 3 3
+ 0.12237 1 4 cbr 210 ------- 0 0.1 -2147483648.0 3 3
- 0.12237 1 4 cbr 210 ------- 0 0.1 -2147483648.0 3 3
r 0.12237 0 2 cbr 210 ------- 0 0.1 -2147483648.0 3 3
+ 0.12237 2 4 cbr 210 ------- 0 0.1 -2147483648.0 3 3
- 0.12237 2 4 cbr 210 ------- 0 0.1 -2147483648.0 3 3
+ 0.12237 2 5 cbr 210 ------- 0 0.1 -2147483648.0 3 3
- 0.12237 2 5 cbr 210 ------- 0 0.1 -2147483648.0 3 3
+ 0.1225 0 1 cbr 210 ------- 0 0.1 -2147483648.0 6 9
- 0.1225 0 1 cbr 210 ------- 0 0.1 -2147483648.0 6 9
+ 0.1225 0 2 cbr 210 ------- 0 0.1 -2147483648.0 6 9
- 0.1225 0 2 cbr 210 ------- 0 0.1 -2147483648.0 6 9
- 0.12336 4 2 prune 80 ------- 30 4.0 2.0 -1 7
r 0.12599 1 3 cbr 210 ------- 0 0.1 -2147483648.0 1 1
+ 0.12599 3 1 prune 80 ------- 30 3.0 1.0 -1 10
- 0.12599 3 1 prune 80 ------- 30 3.0 1.0 -1 10
r 0.12599 1 4 cbr 210 ------- 0 0.1 -2147483648.0 1 1
+ 0.12599 4 2 cbr 210 ------- 0 0.1 -2147483648.0 1 1
- 0.12599 4 2 cbr 210 ------- 0 0.1 -2147483648.0 1 1
r 0.12599 2 4 cbr 210 ------- 0 0.1 -2147483648.0 1 1
+ 0.12599 4 2 prune 80 ------- 30 4.0 2.0 -1 11
r 0.12599 2 5 cbr 210 ------- 0 0.1 -2147483648.0 1 1
+ 0.12599 5 2 prune 80 ------- 30 5.0 2.0 -1 12
- 0.12599 5 2 prune 80 ------- 30 5.0 2.0 -1 12
r 0.12612 0 1 cbr 210 ------- 0 0.1 -2147483648.0 4 4
+ 0.12612 1 3 cbr 210 ------- 0 0.1 -2147483648.0 4 4
- 0.12612 1 3 cbr 210 ------- 0 0.1 -2147483648.0 4 4
+ 0.12612 1 4 cbr 210 ------- 0 0.1 -2147483648.0 4 4
- 0.12612 1 4 cbr 210 ------- 0 0.1 -2147483648.0 4 4
r 0.12612 0 2 cbr 210 ------- 0 0.1 -2147483648.0 4 4
+ 0.12612 2 4 cbr 210 ------- 0 0.1 -2147483648.0 4 4
- 0.12612 2 4 cbr 210 ------- 0 0.1 -2147483648.0 4 4
+ 0.12612 2 5 cbr 210 ------- 0 0.1 -2147483648.0 4 4
- 0.12612 2 5 cbr 210 ------- 0 0.1 -2147483648.0 4 4
+ 0.12625 0 1 cbr 210 ------- 0 0.1 -2147483648.0 7 13
- 0.12625 0 1 cbr 210 ------- 0 0.1 -2147483648.0 7 13
+ 0.12625 0 2 cbr 210 ------- 0 0.1 -2147483648.0 7 13
- 0.12625 0 2 cbr 210 ------- 0 0.1 -2147483648.0 7 13
- 0.12711 4 2 prune 80 ------- 30 4.0 2.0 -1 11
r 0.12974 1 3 cbr 210 ------- 0 0.1 -2147483648.0 2 2
+ 0.12974 3 1 prune 80 ------- 30 3.0 1.0 -1 14
- 0.12974 3 1 prune 80 ------- 30 3.0 1.0 -1 14
r 0.12974 1 4 cbr 210 ------- 0 0.1 -2147483648.0 2 2
+ 0.12974 4 2 cbr 210 ------- 0 0.1 -2147483648.0 2 2
- 0.12974 4 2 cbr 210 ------- 0 0.1 -2147483648.0 2 2
r 0.12974 2 4 cbr 210 ------- 0 0.1 -2147483648.0 2 2
+ 0.12974 4 2 prune 80 ------- 30 4.0 2.0 -1 15
r 0.12974 2 5 cbr 210 ------- 0 0.1 -2147483648.0 2 2
+ 0.12974 5 2 prune 80 ------- 30 5.0 2.0 -1 16
- 0.12974 5 2 prune 80 ------- 30 5.0 2.0 -1 16
r 0.12987 0 1 cbr 210 ------- 0 0.1 -2147483648.0 5 5
+ 0.12987 1 3 cbr 210 ------- 0 0.1 -2147483648.0 5 5
- 0.12987 1 3 cbr 210 ------- 0 0.1 -2147483648.0 5 5
+ 0.12987 1 4 cbr 210 ------- 0 0.1 -2147483648.0 5 5
- 0.12987 1 4 cbr 210 ------- 0 0.1 -2147483648.0 5 5
r 0.12987 0 2 cbr 210 ------- 0 0.1 -2147483648.0 5 5
+ 0.12987 2 4 cbr 210 ------- 0 0.1 -2147483648.0 5 5
- 0.12987 2 4 cbr 210 ------- 0 0.1 -2147483648.0 5 5
+ 0.12987 2 5 cbr 210 ------- 0 0.1 -2147483648.0 5 5
- 0.12987 2 5 cbr 210 ------- 0 0.1 -2147483648.0 5 5
+ 0.13 0 1 cbr 210 ------- 0 0.1 -2147483648.0 8 17
- 0.13 0 1 cbr 210 ------- 0 0.1 -2147483648.0 8 17
+ 0.13 0 2 cbr 210 ------- 0 0.1 -2147483648.0 8 17
- 0.13 0 2 cbr 210 ------- 0 0.1 -2147483648.0 8 17
- 0.13086 4 2 prune 80 ------- 30 4.0 2.0 -1 15
r 0.132667 3 1 prune 80 ------- 30 3.0 1.0 -1 6
r 0.132667 5 2 prune 80 ------- 30 5.0 2.0 -1 8
r 0.13336 4 2 cbr 210 ------- 0 0.1 -2147483648.0 0 0
+ 0.13336 2 4 prune 80 ------- 30 2.0 4.0 -1 18
- 0.13336 2 4 prune 80 ------- 30 2.0 4.0 -1 18
r 0.13349 1 3 cbr 210 ------- 0 0.1 -2147483648.0 3 3
+ 0.13349 3 1 prune 80 ------- 30 3.0 1.0 -1 19
- 0.13349 3 1 prune 80 ------- 30 3.0 1.0 -1 19
r 0.13349 1 4 cbr 210 ------- 0 0.1 -2147483648.0 3 3
+ 0.13349 4 2 cbr 210 ------- 0 0.1 -2147483648.0 3 3
- 0.13349 4 2 cbr 210 ------- 0 0.1 -2147483648.0 3 3
r 0.13349 2 4 cbr 210 ------- 0 0.1 -2147483648.0 3 3
+ 0.13349 4 2 prune 80 ------- 30 4.0 2.0 -1 20
r 0.13349 2 5 cbr 210 ------- 0 0.1 -2147483648.0 3 3
+ 0.13349 5 2 prune 80 ------- 30 5.0 2.0 -1 21
- 0.13349 5 2 prune 80 ------- 30 5.0 2.0 -1 21
r 0.13362 0 1 cbr 210 ------- 0 0.1 -2147483648.0 6 9
+ 0.13362 1 3 cbr 210 ------- 0 0.1 -2147483648.0 6 9
- 0.13362 1 3 cbr 210 ------- 0 0.1 -2147483648.0 6 9
+ 0.13362 1 4 cbr 210 ------- 0 0.1 -2147483648.0 6 9
- 0.13362 1 4 cbr 210 ------- 0 0.1 -2147483648.0 6 9
r 0.13362 0 2 cbr 210 ------- 0 0.1 -2147483648.0 6 9
+ 0.13362 2 4 cbr 210 ------- 0 0.1 -2147483648.0 6 9
+ 0.13362 2 5 cbr 210 ------- 0 0.1 -2147483648.0 6 9
- 0.13362 2 5 cbr 210 ------- 0 0.1 -2147483648.0 6 9
+ 0.13375 0 1 cbr 210 ------- 0 0.1 -2147483648.0 9 22
- 0.13375 0 1 cbr 210 ------- 0 0.1 -2147483648.0 9 22
+ 0.13375 0 2 cbr 210 ------- 0 0.1 -2147483648.0 9 22
- 0.13375 0 2 cbr 210 ------- 0 0.1 -2147483648.0 9 22
r 0.133787 4 2 prune 80 ------- 30 4.0 2.0 -1 7
- 0.133787 2 4 cbr 210 ------- 0 0.1 -2147483648.0 6 9
- 0.13461 4 2 prune 80 ------- 30 4.0 2.0 -1 20
r 0.136417 3 1 prune 80 ------- 30 3.0 1.0 -1 10
r 0.136417 5 2 prune 80 ------- 30 5.0 2.0 -1 12
r 0.13711 4 2 cbr 210 ------- 0 0.1 -2147483648.0 1 1
+ 0.13711 2 4 prune 80 ------- 30 2.0 4.0 -1 23
- 0.13711 2 4 prune 80 ------- 30 2.0 4.0 -1 23
r 0.13724 1 3 cbr 210 ------- 0 0.1 -2147483648.0 4 4
+ 0.13724 3 1 prune 80 ------- 30 3.0 1.0 -1 24
- 0.13724 3 1 prune 80 ------- 30 3.0 1.0 -1 24
r 0.13724 1 4 cbr 210 ------- 0 0.1 -2147483648.0 4 4
+ 0.13724 4 2 cbr 210 ------- 0 0.1 -2147483648.0 4 4
- 0.13724 4 2 cbr 210 ------- 0 0.1 -2147483648.0 4 4
r 0.13724 2 4 cbr 210 ------- 0 0.1 -2147483648.0 4 4
+ 0.13724 4 2 prune 80 ------- 30 4.0 2.0 -1 25
r 0.13724 2 5 cbr 210 ------- 0 0.1 -2147483648.0 4 4
+ 0.13724 5 2 prune 80 ------- 30 5.0 2.0 -1 26
- 0.13724 5 2 prune 80 ------- 30 5.0 2.0 -1 26
r 0.13737 0 1 cbr 210 ------- 0 0.1 -2147483648.0 7 13
+ 0.13737 1 3 cbr 210 ------- 0 0.1 -2147483648.0 7 13
- 0.13737 1 3 cbr 210 ------- 0 0.1 -2147483648.0 7 13
+ 0.13737 1 4 cbr 210 ------- 0 0.1 -2147483648.0 7 13
- 0.13737 1 4 cbr 210 ------- 0 0.1 -2147483648.0 7 13
r 0.13737 0 2 cbr 210 ------- 0 0.1 -2147483648.0 7 13
+ 0.13737 2 5 cbr 210 ------- 0 0.1 -2147483648.0 7 13
- 0.13737 2 5 cbr 210 ------- 0 0.1 -2147483648.0 7 13
+ 0.1375 0 1 cbr 210 ------- 0 0.1 -2147483648.0 10 27
- 0.1375 0 1 cbr 210 ------- 0 0.1 -2147483648.0 10 27
+ 0.1375 0 2 cbr 210 ------- 0 0.1 -2147483648.0 10 27
- 0.1375 0 2 cbr 210 ------- 0 0.1 -2147483648.0 10 27
r 0.137537 4 2 prune 80 ------- 30 4.0 2.0 -1 11
- 0.13836 4 2 prune 80 ------- 30 4.0 2.0 -1 25
r 0.140167 3 1 prune 80 ------- 30 3.0 1.0 -1 14
r 0.140167 5 2 prune 80 ------- 30 5.0 2.0 -1 16
r 0.14086 4 2 cbr 210 ------- 0 0.1 -2147483648.0 2 2
+ 0.14086 2 4 prune 80 ------- 30 2.0 4.0 -1 28
- 0.14086 2 4 prune 80 ------- 30 2.0 4.0 -1 28
r 0.14099 1 3 cbr 210 ------- 0 0.1 -2147483648.0 5 5
+ 0.14099 3 1 prune 80 ------- 30 3.0 1.0 -1 29
- 0.14099 3 1 prune 80 ------- 30 3.0 1.0 -1 29
r 0.14099 1 4 cbr 210 ------- 0 0.1 -2147483648.0 5 5
+ 0.14099 4 2 cbr 210 ------- 0 0.1 -2147483648.0 5 5
- 0.14099 4 2 cbr 210 ------- 0 0.1 -2147483648.0 5 5
r 0.14099 2 4 cbr 210 ------- 0 0.1 -2147483648.0 5 5
+ 0.14099 4 2 prune 80 ------- 30 4.0 2.0 -1 30
r 0.14099 2 5 cbr 210 ------- 0 0.1 -2147483648.0 5 5
+ 0.14099 5 2 prune 80 ------- 30 5.0 2.0 -1 31
- 0.14099 5 2 prune 80 ------- 30 5.0 2.0 -1 31
r 0.14112 0 1 cbr 210 ------- 0 0.1 -2147483648.0 8 17
+ 0.14112 1 3 cbr 210 ------- 0 0.1 -2147483648.0 8 17
- 0.14112 1 3 cbr 210 ------- 0 0.1 -2147483648.0 8 17
+ 0.14112 1 4 cbr 210 ------- 0 0.1 -2147483648.0 8 17
- 0.14112 1 4 cbr 210 ------- 0 0.1 -2147483648.0 8 17
r 0.14112 0 2 cbr 210 ------- 0 0.1 -2147483648.0 8 17
+ 0.14112 2 5 cbr 210 ------- 0 0.1 -2147483648.0 8 17
- 0.14112 2 5 cbr 210 ------- 0 0.1 -2147483648.0 8 17
+ 0.14125 0 1 cbr 210 ------- 0 0.1 -2147483648.0 11 32
- 0.14125 0 1 cbr 210 ------- 0 0.1 -2147483648.0 11 32
+ 0.14125 0 2 cbr 210 ------- 0 0.1 -2147483648.0 11 32
- 0.14125 0 2 cbr 210 ------- 0 0.1 -2147483648.0 11 32
r 0.141287 4 2 prune 80 ------- 30 4.0 2.0 -1 15
- 0.14211 4 2 prune 80 ------- 30 4.0 2.0 -1 30
r 0.143787 2 4 prune 80 ------- 30 2.0 4.0 -1 18
+ 0.143787 4 1 prune 80 ------- 30 4.0 1.0 -1 33
- 0.143787 4 1 prune 80 ------- 30 4.0 1.0 -1 33
r 0.143917 3 1 prune 80 ------- 30 3.0 1.0 -1 19
r 0.143917 5 2 prune 80 ------- 30 5.0 2.0 -1 21
r 0.14461 4 2 cbr 210 ------- 0 0.1 -2147483648.0 3 3
+ 0.14461 2 4 prune 80 ------- 30 2.0 4.0 -1 34
- 0.14461 2 4 prune 80 ------- 30 2.0 4.0 -1 34
r 0.14474 1 3 cbr 210 ------- 0 0.1 -2147483648.0 6 9
+ 0.14474 3 1 prune 80 ------- 30 3.0 1.0 -1 35
- 0.14474 3 1 prune 80 ------- 30 3.0 1.0 -1 35
r 0.14474 1 4 cbr 210 ------- 0 0.1 -2147483648.0 6 9
+ 0.14474 4 1 prune 80 ------- 30 4.0 1.0 -1 36
- 0.14474 4 1 prune 80 ------- 30 4.0 1.0 -1 36
r 0.14474 2 5 cbr 210 ------- 0 0.1 -2147483648.0 6 9
+ 0.14474 5 2 prune 80 ------- 30 5.0 2.0 -1 37
- 0.14474 5 2 prune 80 ------- 30 5.0 2.0 -1 37
r 0.14487 0 1 cbr 210 ------- 0 0.1 -2147483648.0 9 22
+ 0.14487 1 3 cbr 210 ------- 0 0.1 -2147483648.0 9 22
- 0.14487 1 3 cbr 210 ------- 0 0.1 -2147483648.0 9 22
+ 0.14487 1 4 cbr 210 ------- 0 0.1 -2147483648.0 9 22
- 0.14487 1 4 cbr 210 ------- 0 0.1 -2147483648.0 9 22
r 0.14487 0 2 cbr 210 ------- 0 0.1 -2147483648.0 9 22
+ 0.14487 2 5 cbr 210 ------- 0 0.1 -2147483648.0 9 22
- 0.14487 2 5 cbr 210 ------- 0 0.1 -2147483648.0 9 22
r 0.144907 2 4 cbr 210 ------- 0 0.1 -2147483648.0 6 9
+ 0.144907 4 2 prune 80 ------- 30 4.0 2.0 -1 38
- 0.144907 4 2 prune 80 ------- 30 4.0 2.0 -1 38
+ 0.145 0 1 cbr 210 ------- 0 0.1 -2147483648.0 12 39
- 0.145 0 1 cbr 210 ------- 0 0.1 -2147483648.0 12 39
+ 0.145 0 2 cbr 210 ------- 0 0.1 -2147483648.0 12 39
- 0.145 0 2 cbr 210 ------- 0 0.1 -2147483648.0 12 39
r 0.145037 4 2 prune 80 ------- 30 4.0 2.0 -1 20
r 0.147537 2 4 prune 80 ------- 30 2.0 4.0 -1 23
r 0.147667 3 1 prune 80 ------- 30 3.0 1.0 -1 24
r 0.147667 5 2 prune 80 ------- 30 5.0 2.0 -1 26
r 0.14836 4 2 cbr 210 ------- 0 0.1 -2147483648.0 4 4
+ 0.14836 2 4 prune 80 ------- 30 2.0 4.0 -1 40
- 0.14836 2 4 prune 80 ------- 30 2.0 4.0 -1 40
r 0.14849 1 3 cbr 210 ------- 0 0.1 -2147483648.0 7 13
+ 0.14849 3 1 prune 80 ------- 30 3.0 1.0 -1 41
- 0.14849 3 1 prune 80 ------- 30 3.0 1.0 -1 41
r 0.14849 1 4 cbr 210 ------- 0 0.1 -2147483648.0 7 13
+ 0.14849 4 1 prune 80 ------- 30 4.0 1.0 -1 42
- 0.14849 4 1 prune 80 ------- 30 4.0 1.0 -1 42
r 0.14849 2 5 cbr 210 ------- 0 0.1 -2147483648.0 7 13
+ 0.14849 5 2 prune 80 ------- 30 5.0 2.0 -1 43
- 0.14849 5 2 prune 80 ------- 30 5.0 2.0 -1 43
r 0.14862 0 1 cbr 210 ------- 0 0.1 -2147483648.0 10 27
+ 0.14862 1 3 cbr 210 ------- 0 0.1 -2147483648.0 10 27
- 0.14862 1 3 cbr 210 ------- 0 0.1 -2147483648.0 10 27
+ 0.14862 1 4 cbr 210 ------- 0 0.1 -2147483648.0 10 27
- 0.14862 1 4 cbr 210 ------- 0 0.1 -2147483648.0 10 27
r 0.14862 0 2 cbr 210 ------- 0 0.1 -2147483648.0 10 27
+ 0.14862 2 5 cbr 210 ------- 0 0.1 -2147483648.0 10 27
- 0.14862 2 5 cbr 210 ------- 0 0.1 -2147483648.0 10 27
+ 0.14875 0 1 cbr 210 ------- 0 0.1 -2147483648.0 13 44
- 0.14875 0 1 cbr 210 ------- 0 0.1 -2147483648.0 13 44
+ 0.14875 0 2 cbr 210 ------- 0 0.1 -2147483648.0 13 44
- 0.14875 0 2 cbr 210 ------- 0 0.1 -2147483648.0 13 44
r 0.148787 4 2 prune 80 ------- 30 4.0 2.0 -1 25
r 0.151287 2 4 prune 80 ------- 30 2.0 4.0 -1 28
r 0.151417 3 1 prune 80 ------- 30 3.0 1.0 -1 29
r 0.151417 5 2 prune 80 ------- 30 5.0 2.0 -1 31
r 0.15211 4 2 cbr 210 ------- 0 0.1 -2147483648.0 5 5
+ 0.15211 2 4 prune 80 ------- 30 2.0 4.0 -1 45
- 0.15211 2 4 prune 80 ------- 30 2.0 4.0 -1 45
r 0.15224 1 3 cbr 210 ------- 0 0.1 -2147483648.0 8 17
+ 0.15224 3 1 prune 80 ------- 30 3.0 1.0 -1 46
- 0.15224 3 1 prune 80 ------- 30 3.0 1.0 -1 46
r 0.15224 1 4 cbr 210 ------- 0 0.1 -2147483648.0 8 17
+ 0.15224 4 1 prune 80 ------- 30 4.0 1.0 -1 47
- 0.15224 4 1 prune 80 ------- 30 4.0 1.0 -1 47
r 0.15224 2 5 cbr 210 ------- 0 0.1 -2147483648.0 8 17
+ 0.15224 5 2 prune 80 ------- 30 5.0 2.0 -1 48
- 0.15224 5 2 prune 80 ------- 30 5.0 2.0 -1 48
r 0.15237 0 1 cbr 210 ------- 0 0.1 -2147483648.0 11 32
+ 0.15237 1 3 cbr 210 ------- 0 0.1 -2147483648.0 11 32
- 0.15237 1 3 cbr 210 ------- 0 0.1 -2147483648.0 11 32
+ 0.15237 1 4 cbr 210 ------- 0 0.1 -2147483648.0 11 32
- 0.15237 1 4 cbr 210 ------- 0 0.1 -2147483648.0 11 32
r 0.15237 0 2 cbr 210 ------- 0 0.1 -2147483648.0 11 32
+ 0.15237 2 5 cbr 210 ------- 0 0.1 -2147483648.0 11 32
- 0.15237 2 5 cbr 210 ------- 0 0.1 -2147483648.0 11 32
+ 0.1525 0 1 cbr 210 ------- 0 0.1 -2147483648.0 14 49
- 0.1525 0 1 cbr 210 ------- 0 0.1 -2147483648.0 14 49
+ 0.1525 0 2 cbr 210 ------- 0 0.1 -2147483648.0 14 49
- 0.1525 0 2 cbr 210 ------- 0 0.1 -2147483648.0 14 49
r 0.152537 4 2 prune 80 ------- 30 4.0 2.0 -1 30
r 0.154213 4 1 prune 80 ------- 30 4.0 1.0 -1 33
r 0.155037 2 4 prune 80 ------- 30 2.0 4.0 -1 34
r 0.155167 3 1 prune 80 ------- 30 3.0 1.0 -1 35
r 0.155167 4 1 prune 80 ------- 30 4.0 1.0 -1 36
r 0.155167 5 2 prune 80 ------- 30 5.0 2.0 -1 37
r 0.155333 4 2 prune 80 ------- 30 4.0 2.0 -1 38
r 0.15599 1 3 cbr 210 ------- 0 0.1 -2147483648.0 9 22
+ 0.15599 3 1 prune 80 ------- 30 3.0 1.0 -1 50
- 0.15599 3 1 prune 80 ------- 30 3.0 1.0 -1 50
r 0.15599 1 4 cbr 210 ------- 0 0.1 -2147483648.0 9 22
+ 0.15599 4 1 prune 80 ------- 30 4.0 1.0 -1 51
- 0.15599 4 1 prune 80 ------- 30 4.0 1.0 -1 51
r 0.15599 2 5 cbr 210 ------- 0 0.1 -2147483648.0 9 22
+ 0.15599 5 2 prune 80 ------- 30 5.0 2.0 -1 52
- 0.15599 5 2 prune 80 ------- 30 5.0 2.0 -1 52
r 0.15612 0 1 cbr 210 ------- 0 0.1 -2147483648.0 12 39
+ 0.15612 1 3 cbr 210 ------- 0 0.1 -2147483648.0 12 39
- 0.15612 1 3 cbr 210 ------- 0 0.1 -2147483648.0 12 39
r 0.15612 0 2 cbr 210 ------- 0 0.1 -2147483648.0 12 39
+ 0.15612 2 5 cbr 210 ------- 0 0.1 -2147483648.0 12 39
- 0.15612 2 5 cbr 210 ------- 0 0.1 -2147483648.0 12 39
+ 0.15625 0 1 cbr 210 ------- 0 0.1 -2147483648.0 15 53
- 0.15625 0 1 cbr 210 ------- 0 0.1 -2147483648.0 15 53
+ 0.15625 0 2 cbr 210 ------- 0 0.1 -2147483648.0 15 53
- 0.15625 0 2 cbr 210 ------- 0 0.1 -2147483648.0 15 53
r 0.158787 2 4 prune 80 ------- 30 2.0 4.0 -1 40
r 0.158917 3 1 prune 80 ------- 30 3.0 1.0 -1 41
r 0.158917 4 1 prune 80 ------- 30 4.0 1.0 -1 42
r 0.158917 5 2 prune 80 ------- 30 5.0 2.0 -1 43
r 0.15974 1 3 cbr 210 ------- 0 0.1 -2147483648.0 10 27
+ 0.15974 3 1 prune 80 ------- 30 3.0 1.0 -1 54
- 0.15974 3 1 prune 80 ------- 30 3.0 1.0 -1 54
r 0.15974 1 4 cbr 210 ------- 0 0.1 -2147483648.0 10 27
+ 0.15974 4 1 prune 80 ------- 30 4.0 1.0 -1 55
- 0.15974 4 1 prune 80 ------- 30 4.0 1.0 -1 55
r 0.15974 2 5 cbr 210 ------- 0 0.1 -2147483648.0 10 27
+ 0.15974 5 2 prune 80 ------- 30 5.0 2.0 -1 56
- 0.15974 5 2 prune 80 ------- 30 5.0 2.0 -1 56
r 0.15987 0 1 cbr 210 ------- 0 0.1 -2147483648.0 13 44
+ 0.15987 1 3 cbr 210 ------- 0 0.1 -2147483648.0 13 44
- 0.15987 1 3 cbr 210 ------- 0 0.1 -2147483648.0 13 44
r 0.15987 0 2 cbr 210 ------- 0 0.1 -2147483648.0 13 44
+ 0.15987 2 5 cbr 210 ------- 0 0.1 -2147483648.0 13 44
- 0.15987 2 5 cbr 210 ------- 0 0.1 -2147483648.0 13 44
+ 0.16 0 1 cbr 210 ------- 0 0.1 -2147483648.0 16 57
- 0.16 0 1 cbr 210 ------- 0 0.1 -2147483648.0 16 57
+ 0.16 0 2 cbr 210 ------- 0 0.1 -2147483648.0 16 57
- 0.16 0 2 cbr 210 ------- 0 0.1 -2147483648.0 16 57
r 0.162537 2 4 prune 80 ------- 30 2.0 4.0 -1 45
r 0.162667 3 1 prune 80 ------- 30 3.0 1.0 -1 46
r 0.162667 4 1 prune 80 ------- 30 4.0 1.0 -1 47
r 0.162667 5 2 prune 80 ------- 30 5.0 2.0 -1 48
r 0.16349 1 3 cbr 210 ------- 0 0.1 -2147483648.0 11 32
+ 0.16349 3 1 prune 80 ------- 30 3.0 1.0 -1 58
- 0.16349 3 1 prune 80 ------- 30 3.0 1.0 -1 58
r 0.16349 1 4 cbr 210 ------- 0 0.1 -2147483648.0 11 32
+ 0.16349 4 1 prune 80 ------- 30 4.0 1.0 -1 59
- 0.16349 4 1 prune 80 ------- 30 4.0 1.0 -1 59
r 0.16349 2 5 cbr 210 ------- 0 0.1 -2147483648.0 11 32
+ 0.16349 5 2 prune 80 ------- 30 5.0 2.0 -1 60
- 0.16349 5 2 prune 80 ------- 30 5.0 2.0 -1 60
r 0.16362 0 1 cbr 210 ------- 0 0.1 -2147483648.0 14 49
+ 0.16362 1 3 cbr 210 ------- 0 0.1 -2147483648.0 14 49
- 0.16362 1 3 cbr 210 ------- 0 0.1 -2147483648.0 14 49
r 0.16362 0 2 cbr 210 ------- 0 0.1 -2147483648.0 14 49
+ 0.16362 2 5 cbr 210 ------- 0 0.1 -2147483648.0 14 49
- 0.16362 2 5 cbr 210 ------- 0 0.1 -2147483648.0 14 49
+ 0.16375 0 1 cbr 210 ------- 0 0.1 -2147483648.0 17 61
- 0.16375 0 1 cbr 210 ------- 0 0.1 -2147483648.0 17 61
+ 0.16375 0 2 cbr 210 ------- 0 0.1 -2147483648.0 17 61
- 0.16375 0 2 cbr 210 ------- 0 0.1 -2147483648.0 17 61
r 0.166417 3 1 prune 80 ------- 30 3.0 1.0 -1 50
r 0.166417 4 1 prune 80 ------- 30 4.0 1.0 -1 51
r 0.166417 5 2 prune 80 ------- 30 5.0 2.0 -1 52
r 0.16724 1 3 cbr 210 ------- 0 0.1 -2147483648.0 12 39
+ 0.16724 3 1 prune 80 ------- 30 3.0 1.0 -1 62
- 0.16724 3 1 prune 80 ------- 30 3.0 1.0 -1 62
r 0.16724 2 5 cbr 210 ------- 0 0.1 -2147483648.0 12 39
+ 0.16724 5 2 prune 80 ------- 30 5.0 2.0 -1 63
- 0.16724 5 2 prune 80 ------- 30 5.0 2.0 -1 63
r 0.16737 0 1 cbr 210 ------- 0 0.1 -2147483648.0 15 53
+ 0.16737 1 3 cbr 210 ------- 0 0.1 -2147483648.0 15 53
- 0.16737 1 3 cbr 210 ------- 0 0.1 -2147483648.0 15 53
r 0.16737 0 2 cbr 210 ------- 0 0.1 -2147483648.0 15 53
+ 0.16737 2 5 cbr 210 ------- 0 0.1 -2147483648.0 15 53
- 0.16737 2 5 cbr 210 ------- 0 0.1 -2147483648.0 15 53
+ 0.1675 0 1 cbr 210 ------- 0 0.1 -2147483648.0 18 64
- 0.1675 0 1 cbr 210 ------- 0 0.1 -2147483648.0 18 64
+ 0.1675 0 2 cbr 210 ------- 0 0.1 -2147483648.0 18 64
- 0.1675 0 2 cbr 210 ------- 0 0.1 -2147483648.0 18 64
r 0.170167 3 1 prune 80 ------- 30 3.0 1.0 -1 54
r 0.170167 4 1 prune 80 ------- 30 4.0 1.0 -1 55
r 0.170167 5 2 prune 80 ------- 30 5.0 2.0 -1 56
r 0.17099 1 3 cbr 210 ------- 0 0.1 -2147483648.0 13 44
+ 0.17099 3 1 prune 80 ------- 30 3.0 1.0 -1 65
- 0.17099 3 1 prune 80 ------- 30 3.0 1.0 -1 65
r 0.17099 2 5 cbr 210 ------- 0 0.1 -2147483648.0 13 44
+ 0.17099 5 2 prune 80 ------- 30 5.0 2.0 -1 66
- 0.17099 5 2 prune 80 ------- 30 5.0 2.0 -1 66
r 0.17112 0 1 cbr 210 ------- 0 0.1 -2147483648.0 16 57
+ 0.17112 1 3 cbr 210 ------- 0 0.1 -2147483648.0 16 57
- 0.17112 1 3 cbr 210 ------- 0 0.1 -2147483648.0 16 57
r 0.17112 0 2 cbr 210 ------- 0 0.1 -2147483648.0 16 57
+ 0.17112 2 5 cbr 210 ------- 0 0.1 -2147483648.0 16 57
- 0.17112 2 5 cbr 210 ------- 0 0.1 -2147483648.0 16 57
+ 0.17125 0 1 cbr 210 ------- 0 0.1 -2147483648.0 19 67
- 0.17125 0 1 cbr 210 ------- 0 0.1 -2147483648.0 19 67
+ 0.17125 0 2 cbr 210 ------- 0 0.1 -2147483648.0 19 67
- 0.17125 0 2 cbr 210 ------- 0 0.1 -2147483648.0 19 67
r 0.173917 3 1 prune 80 ------- 30 3.0 1.0 -1 58
r 0.173917 4 1 prune 80 ------- 30 4.0 1.0 -1 59
r 0.173917 5 2 prune 80 ------- 30 5.0 2.0 -1 60
r 0.17474 1 3 cbr 210 ------- 0 0.1 -2147483648.0 14 49
+ 0.17474 3 1 prune 80 ------- 30 3.0 1.0 -1 68
- 0.17474 3 1 prune 80 ------- 30 3.0 1.0 -1 68
r 0.17474 2 5 cbr 210 ------- 0 0.1 -2147483648.0 14 49
+ 0.17474 5 2 prune 80 ------- 30 5.0 2.0 -1 69
- 0.17474 5 2 prune 80 ------- 30 5.0 2.0 -1 69
r 0.17487 0 1 cbr 210 ------- 0 0.1 -2147483648.0 17 61
+ 0.17487 1 3 cbr 210 ------- 0 0.1 -2147483648.0 17 61
- 0.17487 1 3 cbr 210 ------- 0 0.1 -2147483648.0 17 61
r 0.17487 0 2 cbr 210 ------- 0 0.1 -2147483648.0 17 61
+ 0.17487 2 5 cbr 210 ------- 0 0.1 -2147483648.0 17 61
- 0.17487 2 5 cbr 210 ------- 0 0.1 -2147483648.0 17 61
+ 0.175 0 1 cbr 210 ------- 0 0.1 -2147483648.0 20 70
- 0.175 0 1 cbr 210 ------- 0 0.1 -2147483648.0 20 70
+ 0.175 0 2 cbr 210 ------- 0 0.1 -2147483648.0 20 70
- 0.175 0 2 cbr 210 ------- 0 0.1 -2147483648.0 20 70
r 0.177667 3 1 prune 80 ------- 30 3.0 1.0 -1 62
r 0.177667 5 2 prune 80 ------- 30 5.0 2.0 -1 63
r 0.17849 1 3 cbr 210 ------- 0 0.1 -2147483648.0 15 53
+ 0.17849 3 1 prune 80 ------- 30 3.0 1.0 -1 71
- 0.17849 3 1 prune 80 ------- 30 3.0 1.0 -1 71
r 0.17849 2 5 cbr 210 ------- 0 0.1 -2147483648.0 15 53
+ 0.17849 5 2 prune 80 ------- 30 5.0 2.0 -1 72
- 0.17849 5 2 prune 80 ------- 30 5.0 2.0 -1 72
r 0.17862 0 1 cbr 210 ------- 0 0.1 -2147483648.0 18 64
+ 0.17862 1 3 cbr 210 ------- 0 0.1 -2147483648.0 18 64
- 0.17862 1 3 cbr 210 ------- 0 0.1 -2147483648.0 18 64
r 0.17862 0 2 cbr 210 ------- 0 0.1 -2147483648.0 18 64
+ 0.17862 2 5 cbr 210 ------- 0 0.1 -2147483648.0 18 64
- 0.17862 2 5 cbr 210 ------- 0 0.1 -2147483648.0 18 64
+ 0.17875 0 1 cbr 210 ------- 0 0.1 -2147483648.0 21 73
- 0.17875 0 1 cbr 210 ------- 0 0.1 -2147483648.0 21 73
+ 0.17875 0 2 cbr 210 ------- 0 0.1 -2147483648.0 21 73
- 0.17875 0 2 cbr 210 ------- 0 0.1 -2147483648.0 21 73
r 0.181417 3 1 prune 80 ------- 30 3.0 1.0 -1 65
r 0.181417 5 2 prune 80 ------- 30 5.0 2.0 -1 66
r 0.18224 1 3 cbr 210 ------- 0 0.1 -2147483648.0 16 57
+ 0.18224 3 1 prune 80 ------- 30 3.0 1.0 -1 74
- 0.18224 3 1 prune 80 ------- 30 3.0 1.0 -1 74
r 0.18224 2 5 cbr 210 ------- 0 0.1 -2147483648.0 16 57
+ 0.18224 5 2 prune 80 ------- 30 5.0 2.0 -1 75
- 0.18224 5 2 prune 80 ------- 30 5.0 2.0 -1 75
r 0.18237 0 1 cbr 210 ------- 0 0.1 -2147483648.0 19 67
+ 0.18237 1 3 cbr 210 ------- 0 0.1 -2147483648.0 19 67
- 0.18237 1 3 cbr 210 ------- 0 0.1 -2147483648.0 19 67
r 0.18237 0 2 cbr 210 ------- 0 0.1 -2147483648.0 19 67
+ 0.18237 2 5 cbr 210 ------- 0 0.1 -2147483648.0 19 67
- 0.18237 2 5 cbr 210 ------- 0 0.1 -2147483648.0 19 67
+ 0.1825 0 1 cbr 210 ------- 0 0.1 -2147483648.0 22 76
- 0.1825 0 1 cbr 210 ------- 0 0.1 -2147483648.0 22 76
+ 0.1825 0 2 cbr 210 ------- 0 0.1 -2147483648.0 22 76
- 0.1825 0 2 cbr 210 ------- 0 0.1 -2147483648.0 22 76
r 0.185167 3 1 prune 80 ------- 30 3.0 1.0 -1 68
r 0.185167 5 2 prune 80 ------- 30 5.0 2.0 -1 69
r 0.18599 1 3 cbr 210 ------- 0 0.1 -2147483648.0 17 61
+ 0.18599 3 1 prune 80 ------- 30 3.0 1.0 -1 77
- 0.18599 3 1 prune 80 ------- 30 3.0 1.0 -1 77
r 0.18599 2 5 cbr 210 ------- 0 0.1 -2147483648.0 17 61
+ 0.18599 5 2 prune 80 ------- 30 5.0 2.0 -1 78
- 0.18599 5 2 prune 80 ------- 30 5.0 2.0 -1 78
r 0.18612 0 1 cbr 210 ------- 0 0.1 -2147483648.0 20 70
+ 0.18612 1 3 cbr 210 ------- 0 0.1 -2147483648.0 20 70
- 0.18612 1 3 cbr 210 ------- 0 0.1 -2147483648.0 20 70
r 0.18612 0 2 cbr 210 ------- 0 0.1 -2147483648.0 20 70
+ 0.18612 2 5 cbr 210 ------- 0 0.1 -2147483648.0 20 70
- 0.18612 2 5 cbr 210 ------- 0 0.1 -2147483648.0 20 70
+ 0.18625 0 1 cbr 210 ------- 0 0.1 -2147483648.0 23 79
- 0.18625 0 1 cbr 210 ------- 0 0.1 -2147483648.0 23 79
+ 0.18625 0 2 cbr 210 ------- 0 0.1 -2147483648.0 23 79
- 0.18625 0 2 cbr 210 ------- 0 0.1 -2147483648.0 23 79
r 0.188917 3 1 prune 80 ------- 30 3.0 1.0 -1 71
r 0.188917 5 2 prune 80 ------- 30 5.0 2.0 -1 72
r 0.18974 1 3 cbr 210 ------- 0 0.1 -2147483648.0 18 64
+ 0.18974 3 1 prune 80 ------- 30 3.0 1.0 -1 80
- 0.18974 3 1 prune 80 ------- 30 3.0 1.0 -1 80
r 0.18974 2 5 cbr 210 ------- 0 0.1 -2147483648.0 18 64
+ 0.18974 5 2 prune 80 ------- 30 5.0 2.0 -1 81
- 0.18974 5 2 prune 80 ------- 30 5.0 2.0 -1 81
r 0.18987 0 1 cbr 210 ------- 0 0.1 -2147483648.0 21 73
+ 0.18987 1 3 cbr 210 ------- 0 0.1 -2147483648.0 21 73
- 0.18987 1 3 cbr 210 ------- 0 0.1 -2147483648.0 21 73
r 0.18987 0 2 cbr 210 ------- 0 0.1 -2147483648.0 21 73
+ 0.18987 2 5 cbr 210 ------- 0 0.1 -2147483648.0 21 73
- 0.18987 2 5 cbr 210 ------- 0 0.1 -2147483648.0 21 73
+ 0.19 0 1 cbr 210 ------- 0 0.1 -2147483648.0 24 82
- 0.19 0 1 cbr 210 ------- 0 0.1 -2147483648.0 24 82
+ 0.19 0 2 cbr 210 ------- 0 0.1 -2147483648.0 24 82
- 0.19 0 2 cbr 210 ------- 0 0.1 -2147483648.0 24 82
r 0.192667 3 1 prune 80 ------- 30 3.0 1.0 -1 74
r 0.192667 5 2 prune 80 ------- 30 5.0 2.0 -1 75
r 0.19349 1 3 cbr 210 ------- 0 0.1 -2147483648.0 19 67
+ 0.19349 3 1 prune 80 ------- 30 3.0 1.0 -1 83
- 0.19349 3 1 prune 80 ------- 30 3.0 1.0 -1 83
r 0.19349 2 5 cbr 210 ------- 0 0.1 -2147483648.0 19 67
+ 0.19349 5 2 prune 80 ------- 30 5.0 2.0 -1 84
- 0.19349 5 2 prune 80 ------- 30 5.0 2.0 -1 84
r 0.19362 0 1 cbr 210 ------- 0 0.1 -2147483648.0 22 76
+ 0.19362 1 3 cbr 210 ------- 0 0.1 -2147483648.0 22 76
- 0.19362 1 3 cbr 210 ------- 0 0.1 -2147483648.0 22 76
r 0.19362 0 2 cbr 210 ------- 0 0.1 -2147483648.0 22 76
+ 0.19362 2 5 cbr 210 ------- 0 0.1 -2147483648.0 22 76
- 0.19362 2 5 cbr 210 ------- 0 0.1 -2147483648.0 22 76
+ 0.19375 0 1 cbr 210 ------- 0 0.1 -2147483648.0 25 85
- 0.19375 0 1 cbr 210 ------- 0 0.1 -2147483648.0 25 85
+ 0.19375 0 2 cbr 210 ------- 0 0.1 -2147483648.0 25 85
- 0.19375 0 2 cbr 210 ------- 0 0.1 -2147483648.0 25 85
r 0.196417 3 1 prune 80 ------- 30 3.0 1.0 -1 77
r 0.196417 5 2 prune 80 ------- 30 5.0 2.0 -1 78
r 0.19724 1 3 cbr 210 ------- 0 0.1 -2147483648.0 20 70
+ 0.19724 3 1 prune 80 ------- 30 3.0 1.0 -1 86
- 0.19724 3 1 prune 80 ------- 30 3.0 1.0 -1 86
r 0.19724 2 5 cbr 210 ------- 0 0.1 -2147483648.0 20 70
+ 0.19724 5 2 prune 80 ------- 30 5.0 2.0 -1 87
- 0.19724 5 2 prune 80 ------- 30 5.0 2.0 -1 87
r 0.19737 0 1 cbr 210 ------- 0 0.1 -2147483648.0 23 79
+ 0.19737 1 3 cbr 210 ------- 0 0.1 -2147483648.0 23 79
- 0.19737 1 3 cbr 210 ------- 0 0.1 -2147483648.0 23 79
r 0.19737 0 2 cbr 210 ------- 0 0.1 -2147483648.0 23 79
+ 0.19737 2 5 cbr 210 ------- 0 0.1 -2147483648.0 23 79
- 0.19737 2 5 cbr 210 ------- 0 0.1 -2147483648.0 23 79
+ 0.1975 0 1 cbr 210 ------- 0 0.1 -2147483648.0 26 88
- 0.1975 0 1 cbr 210 ------- 0 0.1 -2147483648.0 26 88
+ 0.1975 0 2 cbr 210 ------- 0 0.1 -2147483648.0 26 88
- 0.1975 0 2 cbr 210 ------- 0 0.1 -2147483648.0 26 88
v 0.2 eval {set sim_annotation {0.20000000000000001 3 join-group 2147483648}}
r 0.200167 3 1 prune 80 ------- 30 3.0 1.0 -1 80
r 0.200167 5 2 prune 80 ------- 30 5.0 2.0 -1 81
r 0.20099 1 3 cbr 210 ------- 0 0.1 -2147483648.0 21 73
+ 0.20099 3 1 prune 80 ------- 30 3.0 1.0 -1 89
- 0.20099 3 1 prune 80 ------- 30 3.0 1.0 -1 89
r 0.20099 2 5 cbr 210 ------- 0 0.1 -2147483648.0 21 73
+ 0.20099 5 2 prune 80 ------- 30 5.0 2.0 -1 90
- 0.20099 5 2 prune 80 ------- 30 5.0 2.0 -1 90
r 0.20112 0 1 cbr 210 ------- 0 0.1 -2147483648.0 24 82
+ 0.20112 1 3 cbr 210 ------- 0 0.1 -2147483648.0 24 82
- 0.20112 1 3 cbr 210 ------- 0 0.1 -2147483648.0 24 82
r 0.20112 0 2 cbr 210 ------- 0 0.1 -2147483648.0 24 82
+ 0.20112 2 5 cbr 210 ------- 0 0.1 -2147483648.0 24 82
- 0.20112 2 5 cbr 210 ------- 0 0.1 -2147483648.0 24 82
+ 0.20125 0 1 cbr 210 ------- 0 0.1 -2147483648.0 27 91
- 0.20125 0 1 cbr 210 ------- 0 0.1 -2147483648.0 27 91
+ 0.20125 0 2 cbr 210 ------- 0 0.1 -2147483648.0 27 91
- 0.20125 0 2 cbr 210 ------- 0 0.1 -2147483648.0 27 91