+ 0.2 2 0 graft 80 ------- 31 2.1 0.0 -1 4
- 0.2 2 0 graft 80 ------- 31 2.1 0.0 -1 4
v 0.2 eval {set sim_annotation {0.20000000000000001 2 join-group 2147483648}}
r 0.210427 2 0 graft 80 ------- 31 2.1 0.0 -1 4
+ 0.4 4 1 graft 80 ------- 31 4.1 1.0 -1 11
- 0.4 4 1 graft 80 ------- 31 4.1 1.0 -1 11
v 0.4 eval {set sim_annotation {0.40000000000000002 4 join-group 2147483648}}
r 0.410427 4 1 graft 80 ------- 31 4.1 1.0 -1 11
+ 0.410427 1 0 graft 80 ------- 31 1.0 0.0 -1 13
- 0.410427 1 0 graft 80 ------- 31 1.0 0.0 -1 13
r 0.420853 1 0 graft 80 ------- 31 1.0 0.0 -1 13
v 0.6 eval {set sim_annotation {0.59999999999999998 2 leave-group 2147483648}}
+ 0.6 2 0 prune 80 ------- 30 2.1 0.0 -1 20
- 0.6 2 0 prune 80 ------- 30 2.1 0.0 -1 20
r 0.610427 2 0 prune 80 ------- 30 2.1 0.0 -1 20
+ 0.7 5 2 graft 80 ------- 31 5.1 2.1 -1 24
- 0.7 5 2 graft 80 ------- 31 5.1 2.1 -1 24
v 0.7 eval {set sim_annotation {0.69999999999999996 5 join-group 2147483648}}
r 0.710427 5 2 graft 80 ------- 31 5.1 2.1 -1 24
+ 0.710427 2 0 graft 80 ------- 31 2.1 0.0 -1 26
- 0.710427 2 0 graft 80 ------- 31 2.1 0.0 -1 26
r 0.720853 2 0 graft 80 ------- 31 2.1 0.0 -1 26
v 0.8 eval {set sim_annotation {0.80000000000000004 2 join-group 2147483648}}
