# TESTNAME: http3f
# TOPOLOGY: 5node
# avg-comp-page-age: 40000
# avg-page-age: 60
# avg-page-size: 1024
# avg-req-interval: 60
# client-req-size: 43
# comp-page-size: 51200
# duration: 500
# enable-log: 0
# hb-interval: 30
# max-page-age: 70
# max-page-size: 50000
# max-req-interval: 70
# min-page-age: 50
# min-page-size: 100
# min-req-interval: 50
# nam-trace-all: 1
# ns-random-seed: 188312339
# num-2nd-cache: 5
# num-comp-pages: 1
# prot: http3f
# scheduler-type: Calendar
# single-page: 1
# ttl: 0.1
# upd-interval: 5
# xtrace-page: webtrace-pglog
# xtrace-req: webtrace-reqlog
+ 1 0 3 tcp 40 ------- 0 0.0 3.0 0 0
- 1 0 3 tcp 40 ------- 0 0.0 3.0 0 0
r 1.05032 0 3 tcp 40 ------- 0 0.0 3.0 0 0
+ 1.05032 3 0 ack 40 ------- 0 3.0 0.0 0 1
- 1.05032 3 0 ack 40 ------- 0 3.0 0.0 0 1
r 1.10064 3 0 ack 40 ------- 0 3.0 0.0 0 1
+ 1.10064 0 3 tcp 40 ------- 0 0.0 3.0 1 2
- 1.10064 0 3 tcp 40 ------- 0 0.0 3.0 1 2
+ 1.10064 0 3 tcp 83 ------- 0 0.0 3.0 1 3
- 1.10096 0 3 tcp 83 ------- 0 0.0 3.0 1 3
r 1.15096 0 3 tcp 40 ------- 0 0.0 3.0 1 2
r 1.151624 0 3 tcp 83 ------- 0 0.0 3.0 1 3
+ 1.151624 3 4 tcp 40 ------- 3 3.3 4.0 0 4
- 1.151624 3 4 tcp 40 ------- 3 3.3 4.0 0 4
+ 1.2 3 0 ack 40 ------- 0 3.0 0.0 1 5
- 1.2 3 0 ack 40 ------- 0 3.0 0.0 1 5
r 1.201944 3 4 tcp 40 ------- 3 3.3 4.0 0 4
+ 1.201944 4 3 ack 40 ------- 3 4.0 3.3 0 6
- 1.201944 4 3 ack 40 ------- 3 4.0 3.3 0 6
r 1.25032 3 0 ack 40 ------- 0 3.0 0.0 1 5
r 1.252264 4 3 ack 40 ------- 3 4.0 3.3 0 6
+ 1.252264 3 4 tcp 40 ------- 3 3.3 4.0 1 7
- 1.252264 3 4 tcp 40 ------- 3 3.3 4.0 1 7
+ 1.252264 3 4 tcp 83 ------- 3 3.3 4.0 1 8
- 1.252584 3 4 tcp 83 ------- 3 3.3 4.0 1 8
r 1.302584 3 4 tcp 40 ------- 3 3.3 4.0 1 7
r 1.303248 3 4 tcp 83 ------- 3 3.3 4.0 1 8
+ 1.303248 4 3 ack 576 ------- 3 4.0 3.3 1 9
- 1.303248 4 3 ack 576 ------- 3 4.0 3.3 1 9
r 1.357856 4 3 ack 576 ------- 3 4.0 3.3 1 9
+ 1.357856 3 4 tcp 40 ------- 3 3.3 4.0 44 10
- 1.357856 3 4 tcp 40 ------- 3 3.3 4.0 44 10
r 1.408176 3 4 tcp 40 ------- 3 3.3 4.0 44 10
+ 1.408176 4 3 ack 576 ------- 3 4.0 3.3 537 11
- 1.408176 4 3 ack 576 ------- 3 4.0 3.3 537 11
+ 1.408176 4 3 ack 576 ------- 3 4.0 3.3 1073 12
- 1.412784 4 3 ack 576 ------- 3 4.0 3.3 1073 12
r 1.462784 4 3 ack 576 ------- 3 4.0 3.3 537 11
+ 1.462784 3 4 tcp 40 ------- 3 3.3 4.0 44 13
- 1.462784 3 4 tcp 40 ------- 3 3.3 4.0 44 13
r 1.467392 4 3 ack 576 ------- 3 4.0 3.3 1073 12
+ 1.467392 3 4 tcp 40 ------- 3 3.3 4.0 44 14
- 1.467392 3 4 tcp 40 ------- 3 3.3 4.0 44 14
r 1.513104 3 4 tcp 40 ------- 3 3.3 4.0 44 13
r 1.517712 3 4 tcp 40 ------- 3 3.3 4.0 44 14
+ 1.517712 4 3 ack 432 ------- 3 4.0 3.3 1609 15
- 1.517712 4 3 ack 432 ------- 3 4.0 3.3 1609 15
r 1.571168 4 3 ack 432 ------- 3 4.0 3.3 1609 15
+ 1.571168 3 0 ack 576 ------- 0 3.0 0.0 1 16
- 1.571168 3 0 ack 576 ------- 0 3.0 0.0 1 16
+ 1.6 3 4 tcp 40 ------- 3 3.3 4.0 44 17
- 1.6 3 4 tcp 40 ------- 3 3.3 4.0 44 17
r 1.625776 3 0 ack 576 ------- 0 3.0 0.0 1 16
+ 1.625776 0 3 tcp 40 ------- 0 0.0 3.0 44 18
- 1.625776 0 3 tcp 40 ------- 0 0.0 3.0 44 18
r 1.65032 3 4 tcp 40 ------- 3 3.3 4.0 44 17
r 1.676096 0 3 tcp 40 ------- 0 0.0 3.0 44 18
+ 1.676096 3 0 ack 576 ------- 0 3.0 0.0 537 19
- 1.676096 3 0 ack 576 ------- 0 3.0 0.0 537 19
+ 1.676096 3 0 ack 576 ------- 0 3.0 0.0 1073 20
- 1.680704 3 0 ack 576 ------- 0 3.0 0.0 1073 20
r 1.730704 3 0 ack 576 ------- 0 3.0 0.0 537 19
+ 1.730704 0 3 tcp 40 ------- 0 0.0 3.0 44 21
- 1.730704 0 3 tcp 40 ------- 0 0.0 3.0 44 21
r 1.735312 3 0 ack 576 ------- 0 3.0 0.0 1073 20
+ 1.735312 0 3 tcp 40 ------- 0 0.0 3.0 44 22
- 1.735312 0 3 tcp 40 ------- 0 0.0 3.0 44 22
r 1.781024 0 3 tcp 40 ------- 0 0.0 3.0 44 21
r 1.785632 0 3 tcp 40 ------- 0 0.0 3.0 44 22
+ 1.785632 3 0 ack 432 ------- 0 3.0 0.0 1609 23
- 1.785632 3 0 ack 432 ------- 0 3.0 0.0 1609 23
r 1.839088 3 0 ack 432 ------- 0 3.0 0.0 1609 23
+ 1.9 0 3 tcp 40 ------- 0 0.0 3.0 44 24
- 1.9 0 3 tcp 40 ------- 0 0.0 3.0 44 24
r 1.95032 0 3 tcp 40 ------- 0 0.0 3.0 44 24
+ 2 1 3 tcp 40 ------- 1 1.0 3.1 0 25
- 2 1 3 tcp 40 ------- 1 1.0 3.1 0 25
r 2.05032 1 3 tcp 40 ------- 1 1.0 3.1 0 25
+ 2.05032 3 1 ack 40 ------- 1 3.1 1.0 0 26
- 2.05032 3 1 ack 40 ------- 1 3.1 1.0 0 26
r 2.10064 3 1 ack 40 ------- 1 3.1 1.0 0 26
+ 2.10064 1 3 tcp 40 ------- 1 1.0 3.1 1 27
- 2.10064 1 3 tcp 40 ------- 1 1.0 3.1 1 27
+ 2.10064 1 3 tcp 83 ------- 1 1.0 3.1 1 28
- 2.10096 1 3 tcp 83 ------- 1 1.0 3.1 1 28
r 2.15096 1 3 tcp 40 ------- 1 1.0 3.1 1 27
r 2.151624 1 3 tcp 83 ------- 1 1.0 3.1 1 28
+ 2.151624 3 1 ack 576 ------- 1 3.1 1.0 1 29
- 2.151624 3 1 ack 576 ------- 1 3.1 1.0 1 29
r 2.206232 3 1 ack 576 ------- 1 3.1 1.0 1 29
+ 2.206232 1 3 tcp 40 ------- 1 1.0 3.1 44 30
- 2.206232 1 3 tcp 40 ------- 1 1.0 3.1 44 30
r 2.256552 1 3 tcp 40 ------- 1 1.0 3.1 44 30
+ 2.256552 3 1 ack 576 ------- 1 3.1 1.0 537 31
- 2.256552 3 1 ack 576 ------- 1 3.1 1.0 537 31
+ 2.256552 3 1 ack 576 ------- 1 3.1 1.0 1073 32
- 2.26116 3 1 ack 576 ------- 1 3.1 1.0 1073 32
r 2.31116 3 1 ack 576 ------- 1 3.1 1.0 537 31
+ 2.31116 1 3 tcp 40 ------- 1 1.0 3.1 44 33
- 2.31116 1 3 tcp 40 ------- 1 1.0 3.1 44 33
r 2.315768 3 1 ack 576 ------- 1 3.1 1.0 1073 32
+ 2.315768 1 3 tcp 40 ------- 1 1.0 3.1 44 34
- 2.315768 1 3 tcp 40 ------- 1 1.0 3.1 44 34
r 2.36148 1 3 tcp 40 ------- 1 1.0 3.1 44 33
r 2.366088 1 3 tcp 40 ------- 1 1.0 3.1 44 34
+ 2.366088 3 1 ack 432 ------- 1 3.1 1.0 1609 35
- 2.366088 3 1 ack 432 ------- 1 3.1 1.0 1609 35
r 2.419544 3 1 ack 432 ------- 1 3.1 1.0 1609 35
+ 2.5 1 3 tcp 40 ------- 1 1.0 3.1 44 36
- 2.5 1 3 tcp 40 ------- 1 1.0 3.1 44 36
r 2.55032 1 3 tcp 40 ------- 1 1.0 3.1 44 36
+ 3 2 3 tcp 40 ------- 2 2.0 3.2 0 37
- 3 2 3 tcp 40 ------- 2 2.0 3.2 0 37
r 3.05032 2 3 tcp 40 ------- 2 2.0 3.2 0 37
+ 3.05032 3 2 ack 40 ------- 2 3.2 2.0 0 38
- 3.05032 3 2 ack 40 ------- 2 3.2 2.0 0 38
r 3.10064 3 2 ack 40 ------- 2 3.2 2.0 0 38
+ 3.10064 2 3 tcp 40 ------- 2 2.0 3.2 1 39
- 3.10064 2 3 tcp 40 ------- 2 2.0 3.2 1 39
+ 3.10064 2 3 tcp 83 ------- 2 2.0 3.2 1 40
- 3.10096 2 3 tcp 83 ------- 2 2.0 3.2 1 40
r 3.15096 2 3 tcp 40 ------- 2 2.0 3.2 1 39
r 3.151624 2 3 tcp 83 ------- 2 2.0 3.2 1 40
+ 3.151624 3 2 ack 576 ------- 2 3.2 2.0 1 41
- 3.151624 3 2 ack 576 ------- 2 3.2 2.0 1 41
r 3.206232 3 2 ack 576 ------- 2 3.2 2.0 1 41
+ 3.206232 2 3 tcp 40 ------- 2 2.0 3.2 44 42
- 3.206232 2 3 tcp 40 ------- 2 2.0 3.2 44 42
r 3.256552 2 3 tcp 40 ------- 2 2.0 3.2 44 42
+ 3.256552 3 2 ack 576 ------- 2 3.2 2.0 537 43
- 3.256552 3 2 ack 576 ------- 2 3.2 2.0 537 43
+ 3.256552 3 2 ack 576 ------- 2 3.2 2.0 1073 44
- 3.26116 3 2 ack 576 ------- 2 3.2 2.0 1073 44
r 3.31116 3 2 ack 576 ------- 2 3.2 2.0 537 43
+ 3.31116 2 3 tcp 40 ------- 2 2.0 3.2 44 45
- 3.31116 2 3 tcp 40 ------- 2 2.0 3.2 44 45
r 3.315768 3 2 ack 576 ------- 2 3.2 2.0 1073 44
+ 3.315768 2 3 tcp 40 ------- 2 2.0 3.2 44 46
- 3.315768 2 3 tcp 40 ------- 2 2.0 3.2 44 46
r 3.36148 2 3 tcp 40 ------- 2 2.0 3.2 44 45
r 3.366088 2 3 tcp 40 ------- 2 2.0 3.2 44 46
+ 3.366088 3 2 ack 432 ------- 2 3.2 2.0 1609 47
- 3.366088 3 2 ack 432 ------- 2 3.2 2.0 1609 47
r 3.419544 3 2 ack 432 ------- 2 3.2 2.0 1609 47
+ 3.5 2 3 tcp 40 ------- 2 2.0 3.2 44 48
- 3.5 2 3 tcp 40 ------- 2 2.0 3.2 44 48
r 3.55032 2 3 tcp 40 ------- 2 2.0 3.2 44 48
+ 5 0 3 tcp 83 ---A--- 0 0.0 3.0 44 49
- 5 0 3 tcp 83 ---A--- 0 0.0 3.0 44 49
r 5.050664 0 3 tcp 83 ---A--- 0 0.0 3.0 44 49
+ 5.050664 3 0 ack 576 ---A--- 0 3.0 0.0 2001 50
- 5.050664 3 0 ack 576 ---A--- 0 3.0 0.0 2001 50
r 5.105272 3 0 ack 576 ---A--- 0 3.0 0.0 2001 50
+ 5.105272 0 3 tcp 40 ------- 0 0.0 3.0 87 51
- 5.105272 0 3 tcp 40 ------- 0 0.0 3.0 87 51
r 5.155592 0 3 tcp 40 ------- 0 0.0 3.0 87 51
+ 5.155592 3 0 ack 576 ------- 0 3.0 0.0 2537 52
- 5.155592 3 0 ack 576 ------- 0 3.0 0.0 2537 52
+ 5.155592 3 0 ack 576 ------- 0 3.0 0.0 3073 53
- 5.1602 3 0 ack 576 ------- 0 3.0 0.0 3073 53
r 5.2102 3 0 ack 576 ------- 0 3.0 0.0 2537 52
+ 5.2102 0 3 tcp 40 ------- 0 0.0 3.0 87 54
- 5.2102 0 3 tcp 40 ------- 0 0.0 3.0 87 54
r 5.214808 3 0 ack 576 ------- 0 3.0 0.0 3073 53
+ 5.214808 0 3 tcp 40 ------- 0 0.0 3.0 87 55
- 5.214808 0 3 tcp 40 ------- 0 0.0 3.0 87 55
r 5.26052 0 3 tcp 40 ------- 0 0.0 3.0 87 54
r 5.265128 0 3 tcp 40 ------- 0 0.0 3.0 87 55
+ 5.265128 3 0 ack 432 ------- 0 3.0 0.0 3609 56
- 5.265128 3 0 ack 432 ------- 0 3.0 0.0 3609 56
r 5.318584 3 0 ack 432 ------- 0 3.0 0.0 3609 56
+ 5.4 0 3 tcp 40 ------- 0 0.0 3.0 87 57
- 5.4 0 3 tcp 40 ------- 0 0.0 3.0 87 57
r 5.45032 0 3 tcp 40 ------- 0 0.0 3.0 87 57
+ 6 1 3 tcp 83 ---A--- 1 1.0 3.1 44 58
- 6 1 3 tcp 83 ---A--- 1 1.0 3.1 44 58
r 6.050664 1 3 tcp 83 ---A--- 1 1.0 3.1 44 58
+ 6.050664 3 1 ack 576 ---A--- 1 3.1 1.0 2001 59
- 6.050664 3 1 ack 576 ---A--- 1 3.1 1.0 2001 59
r 6.105272 3 1 ack 576 ---A--- 1 3.1 1.0 2001 59
+ 6.105272 1 3 tcp 40 ------- 1 1.0 3.1 87 60
- 6.105272 1 3 tcp 40 ------- 1 1.0 3.1 87 60
r 6.155592 1 3 tcp 40 ------- 1 1.0 3.1 87 60
+ 6.155592 3 1 ack 576 ------- 1 3.1 1.0 2537 61
- 6.155592 3 1 ack 576 ------- 1 3.1 1.0 2537 61
+ 6.155592 3 1 ack 576 ------- 1 3.1 1.0 3073 62
- 6.1602 3 1 ack 576 ------- 1 3.1 1.0 3073 62
r 6.2102 3 1 ack 576 ------- 1 3.1 1.0 2537 61
+ 6.2102 1 3 tcp 40 ------- 1 1.0 3.1 87 63
- 6.2102 1 3 tcp 40 ------- 1 1.0 3.1 87 63
r 6.214808 3 1 ack 576 ------- 1 3.1 1.0 3073 62
+ 6.214808 1 3 tcp 40 ------- 1 1.0 3.1 87 64
- 6.214808 1 3 tcp 40 ------- 1 1.0 3.1 87 64
r 6.26052 1 3 tcp 40 ------- 1 1.0 3.1 87 63
r 6.265128 1 3 tcp 40 ------- 1 1.0 3.1 87 64
+ 6.265128 3 1 ack 432 ------- 1 3.1 1.0 3609 65
- 6.265128 3 1 ack 432 ------- 1 3.1 1.0 3609 65
r 6.318584 3 1 ack 432 ------- 1 3.1 1.0 3609 65
+ 6.4 1 3 tcp 40 ------- 1 1.0 3.1 87 66
- 6.4 1 3 tcp 40 ------- 1 1.0 3.1 87 66
r 6.45032 1 3 tcp 40 ------- 1 1.0 3.1 87 66
+ 7 2 3 tcp 83 ---A--- 2 2.0 3.2 44 67
- 7 2 3 tcp 83 ---A--- 2 2.0 3.2 44 67
r 7.050664 2 3 tcp 83 ---A--- 2 2.0 3.2 44 67
+ 7.050664 3 2 ack 576 ---A--- 2 3.2 2.0 2001 68
- 7.050664 3 2 ack 576 ---A--- 2 3.2 2.0 2001 68
r 7.105272 3 2 ack 576 ---A--- 2 3.2 2.0 2001 68
+ 7.105272 2 3 tcp 40 ------- 2 2.0 3.2 87 69
- 7.105272 2 3 tcp 40 ------- 2 2.0 3.2 87 69
r 7.155592 2 3 tcp 40 ------- 2 2.0 3.2 87 69
+ 7.155592 3 2 ack 576 ------- 2 3.2 2.0 2537 70
- 7.155592 3 2 ack 576 ------- 2 3.2 2.0 2537 70
+ 7.155592 3 2 ack 576 ------- 2 3.2 2.0 3073 71
- 7.1602 3 2 ack 576 ------- 2 3.2 2.0 3073 71
r 7.2102 3 2 ack 576 ------- 2 3.2 2.0 2537 70
+ 7.2102 2 3 tcp 40 ------- 2 2.0 3.2 87 72
- 7.2102 2 3 tcp 40 ------- 2 2.0 3.2 87 72
r 7.214808 3 2 ack 576 ------- 2 3.2 2.0 3073 71
+ 7.214808 2 3 tcp 40 ------- 2 2.0 3.2 87 73
- 7.214808 2 3 tcp 40 ------- 2 2.0 3.2 87 73
r 7.26052 2 3 tcp 40 ------- 2 2.0 3.2 87 72
r 7.265128 2 3 tcp 40 ------- 2 2.0 3.2 87 73
+ 7.265128 3 2 ack 432 ------- 2 3.2 2.0 3609 74
- 7.265128 3 2 ack 432 ------- 2 3.2 2.0 3609 74
r 7.318584 3 2 ack 432 ------- 2 3.2 2.0 3609 74
+ 7.4 2 3 tcp 40 ------- 2 2.0 3.2 87 75
- 7.4 2 3 tcp 40 ------- 2 2.0 3.2 87 75
r 7.45032 2 3 tcp 40 ------- 2 2.0 3.2 87 75
+ 9 3 0 ack 40 ------- 0 3.0 0.0 4001 76
- 9 3 0 ack 40 ------- 0 3.0 0.0 4001 76
+ 9 0 3 tcp 40 ------- 0 0.0 3.0 87 77
- 9 0 3 tcp 40 ------- 0 0.0 3.0 87 77
+ 9 3 1 ack 40 ------- 1 3.1 1.0 4001 78
- 9 3 1 ack 40 ------- 1 3.1 1.0 4001 78
+ 9 1 3 tcp 40 ------- 1 1.0 3.1 87 79
- 9 1 3 tcp 40 ------- 1 1.0 3.1 87 79
+ 9 3 2 ack 40 ------- 2 3.2 2.0 4001 80
- 9 3 2 ack 40 ------- 2 3.2 2.0 4001 80
+ 9 2 3 tcp 40 ------- 2 2.0 3.2 87 81
- 9 2 3 tcp 40 ------- 2 2.0 3.2 87 81
+ 9 4 3 ack 40 ------- 3 4.0 3.3 2001 82
- 9 4 3 ack 40 ------- 3 4.0 3.3 2001 82
+ 9 3 4 tcp 40 ------- 3 3.3 4.0 44 83
- 9 3 4 tcp 40 ------- 3 3.3 4.0 44 83
r 9.05032 3 0 ack 40 ------- 0 3.0 0.0 4001 76
+ 9.05032 0 3 tcp 40 ------- 0 0.0 3.0 87 84
- 9.05032 0 3 tcp 40 ------- 0 0.0 3.0 87 84
r 9.05032 0 3 tcp 40 ------- 0 0.0 3.0 87 77
+ 9.05032 3 0 ack 40 ------- 0 3.0 0.0 4001 85
- 9.05032 3 0 ack 40 ------- 0 3.0 0.0 4001 85
r 9.05032 3 1 ack 40 ------- 1 3.1 1.0 4001 78
+ 9.05032 1 3 tcp 40 ------- 1 1.0 3.1 87 86
- 9.05032 1 3 tcp 40 ------- 1 1.0 3.1 87 86
r 9.05032 1 3 tcp 40 ------- 1 1.0 3.1 87 79
+ 9.05032 3 1 ack 40 ------- 1 3.1 1.0 4001 87
- 9.05032 3 1 ack 40 ------- 1 3.1 1.0 4001 87
r 9.05032 3 2 ack 40 ------- 2 3.2 2.0 4001 80
+ 9.05032 2 3 tcp 40 ------- 2 2.0 3.2 87 88
- 9.05032 2 3 tcp 40 ------- 2 2.0 3.2 87 88
r 9.05032 2 3 tcp 40 ------- 2 2.0 3.2 87 81
+ 9.05032 3 2 ack 40 ------- 2 3.2 2.0 4001 89
- 9.05032 3 2 ack 40 ------- 2 3.2 2.0 4001 89
r 9.05032 4 3 ack 40 ------- 3 4.0 3.3 2001 82
+ 9.05032 3 4 tcp 40 ------- 3 3.3 4.0 44 90
- 9.05032 3 4 tcp 40 ------- 3 3.3 4.0 44 90
r 9.05032 3 4 tcp 40 ------- 3 3.3 4.0 44 83
+ 9.05032 4 3 ack 40 ------- 3 4.0 3.3 2001 91
- 9.05032 4 3 ack 40 ------- 3 4.0 3.3 2001 91
r 9.10064 0 3 tcp 40 ------- 0 0.0 3.0 87 84
r 9.10064 3 0 ack 40 ------- 0 3.0 0.0 4001 85
r 9.10064 1 3 tcp 40 ------- 1 1.0 3.1 87 86
r 9.10064 3 1 ack 40 ------- 1 3.1 1.0 4001 87
r 9.10064 2 3 tcp 40 ------- 2 2.0 3.2 87 88
r 9.10064 3 2 ack 40 ------- 2 3.2 2.0 4001 89
r 9.10064 3 4 tcp 40 ------- 3 3.3 4.0 44 90
r 9.10064 4 3 ack 40 ------- 3 4.0 3.3 2001 91
+ 9.9 0 3 tcp 40 ------- 4 0.0 3.0 0 92
- 9.9 0 3 tcp 40 ------- 4 0.0 3.0 0 92
r 9.95032 0 3 tcp 40 ------- 4 0.0 3.0 0 92
+ 9.95032 3 0 ack 40 ------- 4 3.0 0.0 0 93
- 9.95032 3 0 ack 40 ------- 4 3.0 0.0 0 93
+ 10 1 3 tcp 40 ------- 5 1.0 3.1 0 94
- 10 1 3 tcp 40 ------- 5 1.0 3.1 0 94
r 10.00064 3 0 ack 40 ------- 4 3.0 0.0 0 93
+ 10.00064 0 3 tcp 40 ------- 4 0.0 3.0 1 95
- 10.00064 0 3 tcp 40 ------- 4 0.0 3.0 1 95
+ 10.00064 0 3 tcp 83 ------- 4 0.0 3.0 1 96
- 10.00096 0 3 tcp 83 ------- 4 0.0 3.0 1 96
r 10.05032 1 3 tcp 40 ------- 5 1.0 3.1 0 94
+ 10.05032 3 1 ack 40 ------- 5 3.1 1.0 0 97
- 10.05032 3 1 ack 40 ------- 5 3.1 1.0 0 97
r 10.05096 0 3 tcp 40 ------- 4 0.0 3.0 1 95
r 10.051624 0 3 tcp 83 ------- 4 0.0 3.0 1 96
+ 10.051624 3 0 ack 576 ------- 4 3.0 0.0 1 98
- 10.051624 3 0 ack 576 ------- 4 3.0 0.0 1 98
r 10.10064 3 1 ack 40 ------- 5 3.1 1.0 0 97
+ 10.10064 1 3 tcp 40 ------- 5 1.0 3.1 1 99
- 10.10064 1 3 tcp 40 ------- 5 1.0 3.1 1 99
+ 10.10064 1 3 tcp 83 ------- 5 1.0 3.1 1 100
- 10.10096 1 3 tcp 83 ------- 5 1.0 3.1 1 100
r 10.106232 3 0 ack 576 ------- 4 3.0 0.0 1 98
+ 10.106232 0 3 tcp 40 ------- 4 0.0 3.0 44 101
- 10.106232 0 3 tcp 40 ------- 4 0.0 3.0 44 101
r 10.15096 1 3 tcp 40 ------- 5 1.0 3.1 1 99
r 10.151624 1 3 tcp 83 ------- 5 1.0 3.1 1 100
+ 10.151624 3 1 ack 576 ------- 5 3.1 1.0 1 102
- 10.151624 3 1 ack 576 ------- 5 3.1 1.0 1 102
r 10.156552 0 3 tcp 40 ------- 4 0.0 3.0 44 101
+ 10.156552 3 0 ack 576 ------- 4 3.0 0.0 537 103
- 10.156552 3 0 ack 576 ------- 4 3.0 0.0 537 103
+ 10.156552 3 0 ack 576 ------- 4 3.0 0.0 1073 104
- 10.16116 3 0 ack 576 ------- 4 3.0 0.0 1073 104
r 10.206232 3 1 ack 576 ------- 5 3.1 1.0 1 102
+ 10.206232 1 3 tcp 40 ------- 5 1.0 3.1 44 105
- 10.206232 1 3 tcp 40 ------- 5 1.0 3.1 44 105
r 10.21116 3 0 ack 576 ------- 4 3.0 0.0 537 103
+ 10.21116 0 3 tcp 40 ------- 4 0.0 3.0 44 106
- 10.21116 0 3 tcp 40 ------- 4 0.0 3.0 44 106
r 10.215768 3 0 ack 576 ------- 4 3.0 0.0 1073 104
+ 10.215768 0 3 tcp 40 ------- 4 0.0 3.0 44 107
- 10.215768 0 3 tcp 40 ------- 4 0.0 3.0 44 107
r 10.256552 1 3 tcp 40 ------- 5 1.0 3.1 44 105
+ 10.256552 3 1 ack 576 ------- 5 3.1 1.0 537 108
- 10.256552 3 1 ack 576 ------- 5 3.1 1.0 537 108
+ 10.256552 3 1 ack 576 ------- 5 3.1 1.0 1073 109
- 10.26116 3 1 ack 576 ------- 5 3.1 1.0 1073 109
r 10.26148 0 3 tcp 40 ------- 4 0.0 3.0 44 106
r 10.266088 0 3 tcp 40 ------- 4 0.0 3.0 44 107
+ 10.266088 3 0 ack 432 ------- 4 3.0 0.0 1609 110
- 10.266088 3 0 ack 432 ------- 4 3.0 0.0 1609 110
r 10.31116 3 1 ack 576 ------- 5 3.1 1.0 537 108
+ 10.31116 1 3 tcp 40 ------- 5 1.0 3.1 44 111
- 10.31116 1 3 tcp 40 ------- 5 1.0 3.1 44 111
r 10.315768 3 1 ack 576 ------- 5 3.1 1.0 1073 109
+ 10.315768 1 3 tcp 40 ------- 5 1.0 3.1 44 112
- 10.315768 1 3 tcp 40 ------- 5 1.0 3.1 44 112
r 10.319544 3 0 ack 432 ------- 4 3.0 0.0 1609 110
r 10.36148 1 3 tcp 40 ------- 5 1.0 3.1 44 111
r 10.366088 1 3 tcp 40 ------- 5 1.0 3.1 44 112
+ 10.366088 3 1 ack 432 ------- 5 3.1 1.0 1609 113
- 10.366088 3 1 ack 432 ------- 5 3.1 1.0 1609 113
+ 10.4 0 3 tcp 40 ------- 4 0.0 3.0 44 114
- 10.4 0 3 tcp 40 ------- 4 0.0 3.0 44 114
r 10.419544 3 1 ack 432 ------- 5 3.1 1.0 1609 113
r 10.45032 0 3 tcp 40 ------- 4 0.0 3.0 44 114
+ 10.5 1 3 tcp 40 ------- 5 1.0 3.1 44 115
- 10.5 1 3 tcp 40 ------- 5 1.0 3.1 44 115
r 10.55032 1 3 tcp 40 ------- 5 1.0 3.1 44 115
+ 10.9 1 3 tcp 83 ---A--- 5 1.0 3.1 44 116
- 10.9 1 3 tcp 83 ---A--- 5 1.0 3.1 44 116
r 10.950664 1 3 tcp 83 ---A--- 5 1.0 3.1 44 116
+ 10.950664 3 1 ack 576 ---A--- 5 3.1 1.0 2001 117
- 10.950664 3 1 ack 576 ---A--- 5 3.1 1.0 2001 117
+ 11 2 3 tcp 40 ------- 6 2.0 3.2 0 118
- 11 2 3 tcp 40 ------- 6 2.0 3.2 0 118
r 11.005272 3 1 ack 576 ---A--- 5 3.1 1.0 2001 117
+ 11.005272 1 3 tcp 40 ------- 5 1.0 3.1 87 119
- 11.005272 1 3 tcp 40 ------- 5 1.0 3.1 87 119
r 11.05032 2 3 tcp 40 ------- 6 2.0 3.2 0 118
+ 11.05032 3 2 ack 40 ------- 6 3.2 2.0 0 120
- 11.05032 3 2 ack 40 ------- 6 3.2 2.0 0 120
r 11.055592 1 3 tcp 40 ------- 5 1.0 3.1 87 119
+ 11.055592 3 1 ack 576 ------- 5 3.1 1.0 2537 121
- 11.055592 3 1 ack 576 ------- 5 3.1 1.0 2537 121
+ 11.055592 3 1 ack 576 ------- 5 3.1 1.0 3073 122
- 11.0602 3 1 ack 576 ------- 5 3.1 1.0 3073 122
r 11.10064 3 2 ack 40 ------- 6 3.2 2.0 0 120
+ 11.10064 2 3 tcp 40 ------- 6 2.0 3.2 1 123
- 11.10064 2 3 tcp 40 ------- 6 2.0 3.2 1 123
+ 11.10064 2 3 tcp 83 ------- 6 2.0 3.2 1 124
- 11.10096 2 3 tcp 83 ------- 6 2.0 3.2 1 124
r 11.1102 3 1 ack 576 ------- 5 3.1 1.0 2537 121
+ 11.1102 1 3 tcp 40 ------- 5 1.0 3.1 87 125
- 11.1102 1 3 tcp 40 ------- 5 1.0 3.1 87 125
r 11.114808 3 1 ack 576 ------- 5 3.1 1.0 3073 122
+ 11.114808 1 3 tcp 40 ------- 5 1.0 3.1 87 126
- 11.114808 1 3 tcp 40 ------- 5 1.0 3.1 87 126
r 11.15096 2 3 tcp 40 ------- 6 2.0 3.2 1 123
r 11.151624 2 3 tcp 83 ------- 6 2.0 3.2 1 124
+ 11.151624 3 2 ack 576 ------- 6 3.2 2.0 1 127
- 11.151624 3 2 ack 576 ------- 6 3.2 2.0 1 127
r 11.16052 1 3 tcp 40 ------- 5 1.0 3.1 87 125
r 11.165128 1 3 tcp 40 ------- 5 1.0 3.1 87 126
+ 11.165128 3 1 ack 432 ------- 5 3.1 1.0 3609 128
- 11.165128 3 1 ack 432 ------- 5 3.1 1.0 3609 128
r 11.206232 3 2 ack 576 ------- 6 3.2 2.0 1 127
+ 11.206232 2 3 tcp 40 ------- 6 2.0 3.2 44 129
- 11.206232 2 3 tcp 40 ------- 6 2.0 3.2 44 129
r 11.218584 3 1 ack 432 ------- 5 3.1 1.0 3609 128
r 11.256552 2 3 tcp 40 ------- 6 2.0 3.2 44 129
+ 11.256552 3 2 ack 576 ------- 6 3.2 2.0 537 130
- 11.256552 3 2 ack 576 ------- 6 3.2 2.0 537 130
+ 11.256552 3 2 ack 576 ------- 6 3.2 2.0 1073 131
- 11.26116 3 2 ack 576 ------- 6 3.2 2.0 1073 131
+ 11.3 1 3 tcp 40 ------- 5 1.0 3.1 87 132
- 11.3 1 3 tcp 40 ------- 5 1.0 3.1 87 132
r 11.31116 3 2 ack 576 ------- 6 3.2 2.0 537 130
+ 11.31116 2 3 tcp 40 ------- 6 2.0 3.2 44 133
- 11.31116 2 3 tcp 40 ------- 6 2.0 3.2 44 133
r 11.315768 3 2 ack 576 ------- 6 3.2 2.0 1073 131
+ 11.315768 2 3 tcp 40 ------- 6 2.0 3.2 44 134
- 11.315768 2 3 tcp 40 ------- 6 2.0 3.2 44 134
r 11.35032 1 3 tcp 40 ------- 5 1.0 3.1 87 132
r 11.36148 2 3 tcp 40 ------- 6 2.0 3.2 44 133
r 11.366088 2 3 tcp 40 ------- 6 2.0 3.2 44 134
+ 11.366088 3 2 ack 432 ------- 6 3.2 2.0 1609 135
- 11.366088 3 2 ack 432 ------- 6 3.2 2.0 1609 135
r 11.419544 3 2 ack 432 ------- 6 3.2 2.0 1609 135
+ 11.5 2 3 tcp 40 ------- 6 2.0 3.2 44 136
- 11.5 2 3 tcp 40 ------- 6 2.0 3.2 44 136
r 11.55032 2 3 tcp 40 ------- 6 2.0 3.2 44 136
+ 11.9 2 3 tcp 83 ---A--- 6 2.0 3.2 44 137
- 11.9 2 3 tcp 83 ---A--- 6 2.0 3.2 44 137
r 11.950664 2 3 tcp 83 ---A--- 6 2.0 3.2 44 137
+ 11.950664 3 2 ack 576 ---A--- 6 3.2 2.0 2001 138
- 11.950664 3 2 ack 576 ---A--- 6 3.2 2.0 2001 138
r 12.005272 3 2 ack 576 ---A--- 6 3.2 2.0 2001 138
+ 12.005272 2 3 tcp 40 ------- 6 2.0 3.2 87 139
- 12.005272 2 3 tcp 40 ------- 6 2.0 3.2 87 139
r 12.055592 2 3 tcp 40 ------- 6 2.0 3.2 87 139
+ 12.055592 3 2 ack 576 ------- 6 3.2 2.0 2537 140
- 12.055592 3 2 ack 576 ------- 6 3.2 2.0 2537 140
+ 12.055592 3 2 ack 576 ------- 6 3.2 2.0 3073 141
- 12.0602 3 2 ack 576 ------- 6 3.2 2.0 3073 141
r 12.1102 3 2 ack 576 ------- 6 3.2 2.0 2537 140
+ 12.1102 2 3 tcp 40 ------- 6 2.0 3.2 87 142
- 12.1102 2 3 tcp 40 ------- 6 2.0 3.2 87 142
r 12.114808 3 2 ack 576 ------- 6 3.2 2.0 3073 141
+ 12.114808 2 3 tcp 40 ------- 6 2.0 3.2 87 143
- 12.114808 2 3 tcp 40 ------- 6 2.0 3.2 87 143
r 12.16052 2 3 tcp 40 ------- 6 2.0 3.2 87 142
r 12.165128 2 3 tcp 40 ------- 6 2.0 3.2 87 143
+ 12.165128 3 2 ack 432 ------- 6 3.2 2.0 3609 144
- 12.165128 3 2 ack 432 ------- 6 3.2 2.0 3609 144
r 12.218584 3 2 ack 432 ------- 6 3.2 2.0 3609 144
+ 12.3 2 3 tcp 40 ------- 6 2.0 3.2 87 145
- 12.3 2 3 tcp 40 ------- 6 2.0 3.2 87 145
r 12.35032 2 3 tcp 40 ------- 6 2.0 3.2 87 145
+ 13 0 3 tcp 83 ---A--- 4 0.0 3.0 44 146
- 13 0 3 tcp 83 ---A--- 4 0.0 3.0 44 146
r 13.050664 0 3 tcp 83 ---A--- 4 0.0 3.0 44 146
+ 13.050664 3 0 ack 576 ---A--- 4 3.0 0.0 2001 147
- 13.050664 3 0 ack 576 ---A--- 4 3.0 0.0 2001 147
r 13.105272 3 0 ack 576 ---A--- 4 3.0 0.0 2001 147
+ 13.105272 0 3 tcp 40 ------- 4 0.0 3.0 87 148
- 13.105272 0 3 tcp 40 ------- 4 0.0 3.0 87 148
r 13.155592 0 3 tcp 40 ------- 4 0.0 3.0 87 148
+ 13.155592 3 0 ack 576 ------- 4 3.0 0.0 2537 149
- 13.155592 3 0 ack 576 ------- 4 3.0 0.0 2537 149
+ 13.155592 3 0 ack 576 ------- 4 3.0 0.0 3073 150
- 13.1602 3 0 ack 576 ------- 4 3.0 0.0 3073 150
r 13.2102 3 0 ack 576 ------- 4 3.0 0.0 2537 149
+ 13.2102 0 3 tcp 40 ------- 4 0.0 3.0 87 151
- 13.2102 0 3 tcp 40 ------- 4 0.0 3.0 87 151
r 13.214808 3 0 ack 576 ------- 4 3.0 0.0 3073 150
+ 13.214808 0 3 tcp 40 ------- 4 0.0 3.0 87 152
- 13.214808 0 3 tcp 40 ------- 4 0.0 3.0 87 152
r 13.26052 0 3 tcp 40 ------- 4 0.0 3.0 87 151
r 13.265128 0 3 tcp 40 ------- 4 0.0 3.0 87 152
+ 13.265128 3 0 ack 432 ------- 4 3.0 0.0 3609 153
- 13.265128 3 0 ack 432 ------- 4 3.0 0.0 3609 153
r 13.318584 3 0 ack 432 ------- 4 3.0 0.0 3609 153
+ 13.4 0 3 tcp 40 ------- 4 0.0 3.0 87 154
- 13.4 0 3 tcp 40 ------- 4 0.0 3.0 87 154
r 13.45032 0 3 tcp 40 ------- 4 0.0 3.0 87 154
+ 13.9 0 3 tcp 83 ---A--- 4 0.0 3.0 87 155
- 13.9 0 3 tcp 83 ---A--- 4 0.0 3.0 87 155
r 13.950664 0 3 tcp 83 ---A--- 4 0.0 3.0 87 155
+ 13.950664 3 0 ack 576 ---A--- 4 3.0 0.0 4001 156
- 13.950664 3 0 ack 576 ---A--- 4 3.0 0.0 4001 156
+ 14 1 3 tcp 83 ---A--- 5 1.0 3.1 87 157
- 14 1 3 tcp 83 ---A--- 5 1.0 3.1 87 157
r 14.005272 3 0 ack 576 ---A--- 4 3.0 0.0 4001 156
+ 14.005272 0 3 tcp 40 ------- 4 0.0 3.0 130 158
- 14.005272 0 3 tcp 40 ------- 4 0.0 3.0 130 158
r 14.050664 1 3 tcp 83 ---A--- 5 1.0 3.1 87 157
+ 14.050664 3 1 ack 576 ---A--- 5 3.1 1.0 4001 159
- 14.050664 3 1 ack 576 ---A--- 5 3.1 1.0 4001 159
r 14.055592 0 3 tcp 40 ------- 4 0.0 3.0 130 158
+ 14.055592 3 0 ack 576 ------- 4 3.0 0.0 4537 160
- 14.055592 3 0 ack 576 ------- 4 3.0 0.0 4537 160
+ 14.055592 3 0 ack 576 ------- 4 3.0 0.0 5073 161
- 14.0602 3 0 ack 576 ------- 4 3.0 0.0 5073 161
r 14.105272 3 1 ack 576 ---A--- 5 3.1 1.0 4001 159
+ 14.105272 1 3 tcp 40 ------- 5 1.0 3.1 130 162
- 14.105272 1 3 tcp 40 ------- 5 1.0 3.1 130 162
r 14.1102 3 0 ack 576 ------- 4 3.0 0.0 4537 160
+ 14.1102 0 3 tcp 40 ------- 4 0.0 3.0 130 163
- 14.1102 0 3 tcp 40 ------- 4 0.0 3.0 130 163
r 14.114808 3 0 ack 576 ------- 4 3.0 0.0 5073 161
+ 14.114808 0 3 tcp 40 ------- 4 0.0 3.0 130 164
- 14.114808 0 3 tcp 40 ------- 4 0.0 3.0 130 164
r 14.155592 1 3 tcp 40 ------- 5 1.0 3.1 130 162
+ 14.155592 3 1 ack 576 ------- 5 3.1 1.0 4537 165
- 14.155592 3 1 ack 576 ------- 5 3.1 1.0 4537 165
+ 14.155592 3 1 ack 576 ------- 5 3.1 1.0 5073 166
- 14.1602 3 1 ack 576 ------- 5 3.1 1.0 5073 166
r 14.16052 0 3 tcp 40 ------- 4 0.0 3.0 130 163
r 14.165128 0 3 tcp 40 ------- 4 0.0 3.0 130 164
+ 14.165128 3 0 ack 432 ------- 4 3.0 0.0 5609 167
- 14.165128 3 0 ack 432 ------- 4 3.0 0.0 5609 167
r 14.2102 3 1 ack 576 ------- 5 3.1 1.0 4537 165
+ 14.2102 1 3 tcp 40 ------- 5 1.0 3.1 130 168
- 14.2102 1 3 tcp 40 ------- 5 1.0 3.1 130 168
r 14.214808 3 1 ack 576 ------- 5 3.1 1.0 5073 166
+ 14.214808 1 3 tcp 40 ------- 5 1.0 3.1 130 169
- 14.214808 1 3 tcp 40 ------- 5 1.0 3.1 130 169
r 14.218584 3 0 ack 432 ------- 4 3.0 0.0 5609 167
r 14.26052 1 3 tcp 40 ------- 5 1.0 3.1 130 168
r 14.265128 1 3 tcp 40 ------- 5 1.0 3.1 130 169
+ 14.265128 3 1 ack 432 ------- 5 3.1 1.0 5609 170
- 14.265128 3 1 ack 432 ------- 5 3.1 1.0 5609 170
+ 14.3 0 3 tcp 40 ------- 4 0.0 3.0 130 171
- 14.3 0 3 tcp 40 ------- 4 0.0 3.0 130 171
r 14.318584 3 1 ack 432 ------- 5 3.1 1.0 5609 170
r 14.35032 0 3 tcp 40 ------- 4 0.0 3.0 130 171
+ 14.4 1 3 tcp 40 ------- 5 1.0 3.1 130 172
- 14.4 1 3 tcp 40 ------- 5 1.0 3.1 130 172
r 14.45032 1 3 tcp 40 ------- 5 1.0 3.1 130 172
+ 14.9 1 3 tcp 83 ---A--- 5 1.0 3.1 130 173
- 14.9 1 3 tcp 83 ---A--- 5 1.0 3.1 130 173
r 14.950664 1 3 tcp 83 ---A--- 5 1.0 3.1 130 173
+ 14.950664 3 1 ack 576 ---A--- 5 3.1 1.0 6001 174
- 14.950664 3 1 ack 576 ---A--- 5 3.1 1.0 6001 174
+ 15 2 3 tcp 83 ---A--- 6 2.0 3.2 87 175
- 15 2 3 tcp 83 ---A--- 6 2.0 3.2 87 175
r 15.005272 3 1 ack 576 ---A--- 5 3.1 1.0 6001 174
+ 15.005272 1 3 tcp 40 ------- 5 1.0 3.1 173 176
- 15.005272 1 3 tcp 40 ------- 5 1.0 3.1 173 176
r 15.050664 2 3 tcp 83 ---A--- 6 2.0 3.2 87 175
+ 15.050664 3 2 ack 576 ---A--- 6 3.2 2.0 4001 177
- 15.050664 3 2 ack 576 ---A--- 6 3.2 2.0 4001 177
r 15.055592 1 3 tcp 40 ------- 5 1.0 3.1 173 176
+ 15.055592 3 1 ack 576 ------- 5 3.1 1.0 6537 178
- 15.055592 3 1 ack 576 ------- 5 3.1 1.0 6537 178
+ 15.055592 3 1 ack 576 ------- 5 3.1 1.0 7073 179
- 15.0602 3 1 ack 576 ------- 5 3.1 1.0 7073 179
r 15.105272 3 2 ack 576 ---A--- 6 3.2 2.0 4001 177
+ 15.105272 2 3 tcp 40 ------- 6 2.0 3.2 130 180
- 15.105272 2 3 tcp 40 ------- 6 2.0 3.2 130 180
r 15.1102 3 1 ack 576 ------- 5 3.1 1.0 6537 178
+ 15.1102 1 3 tcp 40 ------- 5 1.0 3.1 173 181
- 15.1102 1 3 tcp 40 ------- 5 1.0 3.1 173 181
r 15.114808 3 1 ack 576 ------- 5 3.1 1.0 7073 179
+ 15.114808 1 3 tcp 40 ------- 5 1.0 3.1 173 182
- 15.114808 1 3 tcp 40 ------- 5 1.0 3.1 173 182
r 15.155592 2 3 tcp 40 ------- 6 2.0 3.2 130 180
+ 15.155592 3 2 ack 576 ------- 6 3.2 2.0 4537 183
- 15.155592 3 2 ack 576 ------- 6 3.2 2.0 4537 183
+ 15.155592 3 2 ack 576 ------- 6 3.2 2.0 5073 184
- 15.1602 3 2 ack 576 ------- 6 3.2 2.0 5073 184
r 15.16052 1 3 tcp 40 ------- 5 1.0 3.1 173 181
r 15.165128 1 3 tcp 40 ------- 5 1.0 3.1 173 182
+ 15.165128 3 1 ack 432 ------- 5 3.1 1.0 7609 185
- 15.165128 3 1 ack 432 ------- 5 3.1 1.0 7609 185
r 15.2102 3 2 ack 576 ------- 6 3.2 2.0 4537 183
+ 15.2102 2 3 tcp 40 ------- 6 2.0 3.2 130 186
- 15.2102 2 3 tcp 40 ------- 6 2.0 3.2 130 186
r 15.214808 3 2 ack 576 ------- 6 3.2 2.0 5073 184
+ 15.214808 2 3 tcp 40 ------- 6 2.0 3.2 130 187
- 15.214808 2 3 tcp 40 ------- 6 2.0 3.2 130 187
r 15.218584 3 1 ack 432 ------- 5 3.1 1.0 7609 185
r 15.26052 2 3 tcp 40 ------- 6 2.0 3.2 130 186
r 15.265128 2 3 tcp 40 ------- 6 2.0 3.2 130 187
+ 15.265128 3 2 ack 432 ------- 6 3.2 2.0 5609 188
- 15.265128 3 2 ack 432 ------- 6 3.2 2.0 5609 188
+ 15.3 1 3 tcp 40 ------- 5 1.0 3.1 173 189
- 15.3 1 3 tcp 40 ------- 5 1.0 3.1 173 189
r 15.318584 3 2 ack 432 ------- 6 3.2 2.0 5609 188
r 15.35032 1 3 tcp 40 ------- 5 1.0 3.1 173 189
+ 15.4 2 3 tcp 40 ------- 6 2.0 3.2 130 190
- 15.4 2 3 tcp 40 ------- 6 2.0 3.2 130 190
r 15.45032 2 3 tcp 40 ------- 6 2.0 3.2 130 190
+ 15.9 2 3 tcp 83 ---A--- 6 2.0 3.2 130 191
- 15.9 2 3 tcp 83 ---A--- 6 2.0 3.2 130 191
r 15.950664 2 3 tcp 83 ---A--- 6 2.0 3.2 130 191
+ 15.950664 3 2 ack 576 ---A--- 6 3.2 2.0 6001 192
- 15.950664 3 2 ack 576 ---A--- 6 3.2 2.0 6001 192
r 16.005272 3 2 ack 576 ---A--- 6 3.2 2.0 6001 192
+ 16.005272 2 3 tcp 40 ------- 6 2.0 3.2 173 193
- 16.005272 2 3 tcp 40 ------- 6 2.0 3.2 173 193
r 16.055592 2 3 tcp 40 ------- 6 2.0 3.2 173 193
+ 16.055592 3 2 ack 576 ------- 6 3.2 2.0 6537 194
- 16.055592 3 2 ack 576 ------- 6 3.2 2.0 6537 194
+ 16.055592 3 2 ack 576 ------- 6 3.2 2.0 7073 195
- 16.0602 3 2 ack 576 ------- 6 3.2 2.0 7073 195
r 16.1102 3 2 ack 576 ------- 6 3.2 2.0 6537 194
+ 16.1102 2 3 tcp 40 ------- 6 2.0 3.2 173 196
- 16.1102 2 3 tcp 40 ------- 6 2.0 3.2 173 196
r 16.114808 3 2 ack 576 ------- 6 3.2 2.0 7073 195
+ 16.114808 2 3 tcp 40 ------- 6 2.0 3.2 173 197
- 16.114808 2 3 tcp 40 ------- 6 2.0 3.2 173 197
r 16.16052 2 3 tcp 40 ------- 6 2.0 3.2 173 196
r 16.165128 2 3 tcp 40 ------- 6 2.0 3.2 173 197
+ 16.165128 3 2 ack 432 ------- 6 3.2 2.0 7609 198
- 16.165128 3 2 ack 432 ------- 6 3.2 2.0 7609 198
r 16.218584 3 2 ack 432 ------- 6 3.2 2.0 7609 198
+ 16.3 2 3 tcp 40 ------- 6 2.0 3.2 173 199
- 16.3 2 3 tcp 40 ------- 6 2.0 3.2 173 199
r 16.35032 2 3 tcp 40 ------- 6 2.0 3.2 173 199
+ 17 0 3 tcp 83 ---A--- 4 0.0 3.0 130 200
- 17 0 3 tcp 83 ---A--- 4 0.0 3.0 130 200
r 17.050664 0 3 tcp 83 ---A--- 4 0.0 3.0 130 200
+ 17.050664 3 0 ack 576 ---A--- 4 3.0 0.0 6001 201
- 17.050664 3 0 ack 576 ---A--- 4 3.0 0.0 6001 201
r 17.105272 3 0 ack 576 ---A--- 4 3.0 0.0 6001 201
+ 17.105272 0 3 tcp 40 ------- 4 0.0 3.0 173 202
- 17.105272 0 3 tcp 40 ------- 4 0.0 3.0 173 202
r 17.155592 0 3 tcp 40 ------- 4 0.0 3.0 173 202
+ 17.155592 3 0 ack 576 ------- 4 3.0 0.0 6537 203
- 17.155592 3 0 ack 576 ------- 4 3.0 0.0 6537 203
+ 17.155592 3 0 ack 576 ------- 4 3.0 0.0 7073 204
- 17.1602 3 0 ack 576 ------- 4 3.0 0.0 7073 204
r 17.2102 3 0 ack 576 ------- 4 3.0 0.0 6537 203
+ 17.2102 0 3 tcp 40 ------- 4 0.0 3.0 173 205
- 17.2102 0 3 tcp 40 ------- 4 0.0 3.0 173 205
r 17.214808 3 0 ack 576 ------- 4 3.0 0.0 7073 204
+ 17.214808 0 3 tcp 40 ------- 4 0.0 3.0 173 206
- 17.214808 0 3 tcp 40 ------- 4 0.0 3.0 173 206
r 17.26052 0 3 tcp 40 ------- 4 0.0 3.0 173 205
r 17.265128 0 3 tcp 40 ------- 4 0.0 3.0 173 206
+ 17.265128 3 0 ack 432 ------- 4 3.0 0.0 7609 207
- 17.265128 3 0 ack 432 ------- 4 3.0 0.0 7609 207
r 17.318584 3 0 ack 432 ------- 4 3.0 0.0 7609 207
+ 17.4 0 3 tcp 40 ------- 4 0.0 3.0 173 208
- 17.4 0 3 tcp 40 ------- 4 0.0 3.0 173 208
r 17.45032 0 3 tcp 40 ------- 4 0.0 3.0 173 208
+ 17.9 0 3 tcp 83 ---A--- 4 0.0 3.0 173 209