# TESTNAME: http4f
# TOPOLOGY: 5node
# avg-comp-page-age: 40000
# avg-page-age: 60
# avg-page-size: 1024
# avg-req-interval: 60
# client-req-size: 43
# comp-page-size: 51200
# duration: 500
# enable-log: 0
# hb-interval: 30
# max-page-age: 70
# max-page-size: 50000
# max-req-interval: 70
# min-page-age: 50
# min-page-size: 100
# min-req-interval: 50
# nam-trace-all: 1
# ns-random-seed: 188312339
# num-2nd-cache: 5
# num-comp-pages: 1
# prot: http4f
# scheduler-type: Calendar
# single-page: 1
# ttl: 0.1
# upd-interval: 5
# xtrace-page: webtrace-pglog
# xtrace-req: webtrace-reqlog
+ 1 0 3 tcp 40 ------- 0 0.0 3.0 0 0
- 1 0 3 tcp 40 ------- 0 0.0 3.0 0 0
r 1.05032 0 3 tcp 40 ------- 0 0.0 3.0 0 0
+ 1.05032 3 0 ack 40 ------- 0 3.0 0.0 0 1
- 1.05032 3 0 ack 40 ------- 0 3.0 0.0 0 1
r 1.10064 3 0 ack 40 ------- 0 3.0 0.0 0 1
+ 1.10064 0 3 tcp 40 ------- 0 0.0 3.0 1 2
- 1.10064 0 3 tcp 40 ------- 0 0.0 3.0 1 2
+ 1.10064 0 3 tcp 83 ------- 0 0.0 3.0 1 3
- 1.10096 0 3 tcp 83 ------- 0 0.0 3.0 1 3
r 1.15096 0 3 tcp 40 ------- 0 0.0 3.0 1 2
r 1.151624 0 3 tcp 83 ------- 0 0.0 3.0 1 3
+ 1.151624 3 4 tcp 40 ------- 3 3.3 4.0 0 4
- 1.151624 3 4 tcp 40 ------- 3 3.3 4.0 0 4
+ 1.2 3 0 ack 40 ------- 0 3.0 0.0 1 5
- 1.2 3 0 ack 40 ------- 0 3.0 0.0 1 5
r 1.201944 3 4 tcp 40 ------- 3 3.3 4.0 0 4
+ 1.201944 4 3 ack 40 ------- 3 4.0 3.3 0 6
- 1.201944 4 3 ack 40 ------- 3 4.0 3.3 0 6
r 1.25032 3 0 ack 40 ------- 0 3.0 0.0 1 5
r 1.252264 4 3 ack 40 ------- 3 4.0 3.3 0 6
+ 1.252264 3 4 tcp 40 ------- 3 3.3 4.0 1 7
- 1.252264 3 4 tcp 40 ------- 3 3.3 4.0 1 7
+ 1.252264 3 4 tcp 83 ------- 3 3.3 4.0 1 8
- 1.252584 3 4 tcp 83 ------- 3 3.3 4.0 1 8
r 1.302584 3 4 tcp 40 ------- 3 3.3 4.0 1 7
r 1.303248 3 4 tcp 83 ------- 3 3.3 4.0 1 8
+ 1.303248 4 3 ack 576 ------- 3 4.0 3.3 1 9
- 1.303248 4 3 ack 576 ------- 3 4.0 3.3 1 9
r 1.357856 4 3 ack 576 ------- 3 4.0 3.3 1 9
+ 1.357856 3 4 tcp 40 ------- 3 3.3 4.0 44 10
- 1.357856 3 4 tcp 40 ------- 3 3.3 4.0 44 10
r 1.408176 3 4 tcp 40 ------- 3 3.3 4.0 44 10
+ 1.408176 4 3 ack 576 ------- 3 4.0 3.3 537 11
- 1.408176 4 3 ack 576 ------- 3 4.0 3.3 537 11
+ 1.408176 4 3 ack 576 ------- 3 4.0 3.3 1073 12
- 1.412784 4 3 ack 576 ------- 3 4.0 3.3 1073 12
r 1.462784 4 3 ack 576 ------- 3 4.0 3.3 537 11
+ 1.462784 3 4 tcp 40 ------- 3 3.3 4.0 44 13
- 1.462784 3 4 tcp 40 ------- 3 3.3 4.0 44 13
r 1.467392 4 3 ack 576 ------- 3 4.0 3.3 1073 12
+ 1.467392 3 4 tcp 40 ------- 3 3.3 4.0 44 14
- 1.467392 3 4 tcp 40 ------- 3 3.3 4.0 44 14
r 1.513104 3 4 tcp 40 ------- 3 3.3 4.0 44 13
r 1.517712 3 4 tcp 40 ------- 3 3.3 4.0 44 14
+ 1.517712 4 3 ack 432 ------- 3 4.0 3.3 1609 15
- 1.517712 4 3 ack 432 ------- 3 4.0 3.3 1609 15
r 1.571168 4 3 ack 432 ------- 3 4.0 3.3 1609 15
+ 1.571168 3 0 ack 576 ------- 0 3.0 0.0 1 16
- 1.571168 3 0 ack 576 ------- 0 3.0 0.0 1 16
+ 1.6 3 4 tcp 40 ------- 3 3.3 4.0 44 17
- 1.6 3 4 tcp 40 ------- 3 3.3 4.0 44 17
r 1.625776 3 0 ack 576 ------- 0 3.0 0.0 1 16
+ 1.625776 0 3 tcp 40 ------- 0 0.0 3.0 44 18
- 1.625776 0 3 tcp 40 ------- 0 0.0 3.0 44 18
r 1.65032 3 4 tcp 40 ------- 3 3.3 4.0 44 17
r 1.676096 0 3 tcp 40 ------- 0 0.0 3.0 44 18
+ 1.676096 3 0 ack 576 ------- 0 3.0 0.0 537 19
- 1.676096 3 0 ack 576 ------- 0 3.0 0.0 537 19
+ 1.676096 3 0 ack 576 ------- 0 3.0 0.0 1073 20
- 1.680704 3 0 ack 576 ------- 0 3.0 0.0 1073 20
r 1.730704 3 0 ack 576 ------- 0 3.0 0.0 537 19
+ 1.730704 0 3 tcp 40 ------- 0 0.0 3.0 44 21
- 1.730704 0 3 tcp 40 ------- 0 0.0 3.0 44 21
r 1.735312 3 0 ack 576 ------- 0 3.0 0.0 1073 20
+ 1.735312 0 3 tcp 40 ------- 0 0.0 3.0 44 22
- 1.735312 0 3 tcp 40 ------- 0 0.0 3.0 44 22
r 1.781024 0 3 tcp 40 ------- 0 0.0 3.0 44 21
r 1.785632 0 3 tcp 40 ------- 0 0.0 3.0 44 22
+ 1.785632 3 0 ack 432 ------- 0 3.0 0.0 1609 23
- 1.785632 3 0 ack 432 ------- 0 3.0 0.0 1609 23
r 1.839088 3 0 ack 432 ------- 0 3.0 0.0 1609 23
+ 1.9 0 3 tcp 40 ------- 0 0.0 3.0 44 24
- 1.9 0 3 tcp 40 ------- 0 0.0 3.0 44 24
r 1.95032 0 3 tcp 40 ------- 0 0.0 3.0 44 24
+ 2 1 3 tcp 40 ------- 1 1.0 3.1 0 25
- 2 1 3 tcp 40 ------- 1 1.0 3.1 0 25
r 2.05032 1 3 tcp 40 ------- 1 1.0 3.1 0 25
+ 2.05032 3 1 ack 40 ------- 1 3.1 1.0 0 26
- 2.05032 3 1 ack 40 ------- 1 3.1 1.0 0 26
r 2.10064 3 1 ack 40 ------- 1 3.1 1.0 0 26
+ 2.10064 1 3 tcp 40 ------- 1 1.0 3.1 1 27
- 2.10064 1 3 tcp 40 ------- 1 1.0 3.1 1 27
+ 2.10064 1 3 tcp 83 ------- 1 1.0 3.1 1 28
- 2.10096 1 3 tcp 83 ------- 1 1.0 3.1 1 28
r 2.15096 1 3 tcp 40 ------- 1 1.0 3.1 1 27
r 2.151624 1 3 tcp 83 ------- 1 1.0 3.1 1 28
+ 2.151624 3 4 tcp 90 ---A--- 3 3.3 4.0 44 29
- 2.151624 3 4 tcp 90 ---A--- 3 3.3 4.0 44 29
+ 2.2 3 1 ack 40 ------- 1 3.1 1.0 1 30
- 2.2 3 1 ack 40 ------- 1 3.1 1.0 1 30
r 2.202344 3 4 tcp 90 ---A--- 3 3.3 4.0 44 29
+ 2.202344 4 3 ack 83 ---A--- 3 4.0 3.3 2001 31
- 2.202344 4 3 ack 83 ---A--- 3 4.0 3.3 2001 31
r 2.25032 3 1 ack 40 ------- 1 3.1 1.0 1 30
r 2.253008 4 3 ack 83 ---A--- 3 4.0 3.3 2001 31
+ 2.253008 3 1 ack 576 ------- 1 3.1 1.0 1 32
- 2.253008 3 1 ack 576 ------- 1 3.1 1.0 1 32
+ 2.3 3 4 tcp 40 ------- 3 3.3 4.0 94 33
- 2.3 3 4 tcp 40 ------- 3 3.3 4.0 94 33
r 2.307616 3 1 ack 576 ------- 1 3.1 1.0 1 32
+ 2.307616 1 3 tcp 40 ------- 1 1.0 3.1 44 34
- 2.307616 1 3 tcp 40 ------- 1 1.0 3.1 44 34
r 2.35032 3 4 tcp 40 ------- 3 3.3 4.0 94 33
r 2.357936 1 3 tcp 40 ------- 1 1.0 3.1 44 34
+ 2.357936 3 1 ack 576 ------- 1 3.1 1.0 537 35
- 2.357936 3 1 ack 576 ------- 1 3.1 1.0 537 35
+ 2.357936 3 1 ack 576 ------- 1 3.1 1.0 1073 36
- 2.362544 3 1 ack 576 ------- 1 3.1 1.0 1073 36
r 2.412544 3 1 ack 576 ------- 1 3.1 1.0 537 35
+ 2.412544 1 3 tcp 40 ------- 1 1.0 3.1 44 37
- 2.412544 1 3 tcp 40 ------- 1 1.0 3.1 44 37
r 2.417152 3 1 ack 576 ------- 1 3.1 1.0 1073 36
+ 2.417152 1 3 tcp 40 ------- 1 1.0 3.1 44 38
- 2.417152 1 3 tcp 40 ------- 1 1.0 3.1 44 38
r 2.462864 1 3 tcp 40 ------- 1 1.0 3.1 44 37
r 2.467472 1 3 tcp 40 ------- 1 1.0 3.1 44 38
+ 2.467472 3 1 ack 432 ------- 1 3.1 1.0 1609 39
- 2.467472 3 1 ack 432 ------- 1 3.1 1.0 1609 39
r 2.520928 3 1 ack 432 ------- 1 3.1 1.0 1609 39
+ 2.6 1 3 tcp 40 ------- 1 1.0 3.1 44 40
- 2.6 1 3 tcp 40 ------- 1 1.0 3.1 44 40
r 2.65032 1 3 tcp 40 ------- 1 1.0 3.1 44 40
+ 3 2 3 tcp 40 ------- 2 2.0 3.2 0 41
- 3 2 3 tcp 40 ------- 2 2.0 3.2 0 41
r 3.05032 2 3 tcp 40 ------- 2 2.0 3.2 0 41
+ 3.05032 3 2 ack 40 ------- 2 3.2 2.0 0 42
- 3.05032 3 2 ack 40 ------- 2 3.2 2.0 0 42
r 3.10064 3 2 ack 40 ------- 2 3.2 2.0 0 42
+ 3.10064 2 3 tcp 40 ------- 2 2.0 3.2 1 43
- 3.10064 2 3 tcp 40 ------- 2 2.0 3.2 1 43
+ 3.10064 2 3 tcp 83 ------- 2 2.0 3.2 1 44
- 3.10096 2 3 tcp 83 ------- 2 2.0 3.2 1 44
r 3.15096 2 3 tcp 40 ------- 2 2.0 3.2 1 43
r 3.151624 2 3 tcp 83 ------- 2 2.0 3.2 1 44
+ 3.151624 3 4 tcp 90 ---A--- 3 3.3 4.0 94 45
- 3.151624 3 4 tcp 90 ---A--- 3 3.3 4.0 94 45
+ 3.2 3 2 ack 40 ------- 2 3.2 2.0 1 46
- 3.2 3 2 ack 40 ------- 2 3.2 2.0 1 46
r 3.202344 3 4 tcp 90 ---A--- 3 3.3 4.0 94 45
+ 3.202344 4 3 ack 83 ---A--- 3 4.0 3.3 2044 47
- 3.202344 4 3 ack 83 ---A--- 3 4.0 3.3 2044 47
r 3.25032 3 2 ack 40 ------- 2 3.2 2.0 1 46
r 3.253008 4 3 ack 83 ---A--- 3 4.0 3.3 2044 47
+ 3.253008 3 2 ack 576 ------- 2 3.2 2.0 1 48
- 3.253008 3 2 ack 576 ------- 2 3.2 2.0 1 48
+ 3.3 3 4 tcp 40 ------- 3 3.3 4.0 144 49
- 3.3 3 4 tcp 40 ------- 3 3.3 4.0 144 49
r 3.307616 3 2 ack 576 ------- 2 3.2 2.0 1 48
+ 3.307616 2 3 tcp 40 ------- 2 2.0 3.2 44 50
- 3.307616 2 3 tcp 40 ------- 2 2.0 3.2 44 50
r 3.35032 3 4 tcp 40 ------- 3 3.3 4.0 144 49
r 3.357936 2 3 tcp 40 ------- 2 2.0 3.2 44 50
+ 3.357936 3 2 ack 576 ------- 2 3.2 2.0 537 51
- 3.357936 3 2 ack 576 ------- 2 3.2 2.0 537 51
+ 3.357936 3 2 ack 576 ------- 2 3.2 2.0 1073 52
- 3.362544 3 2 ack 576 ------- 2 3.2 2.0 1073 52
r 3.412544 3 2 ack 576 ------- 2 3.2 2.0 537 51
+ 3.412544 2 3 tcp 40 ------- 2 2.0 3.2 44 53
- 3.412544 2 3 tcp 40 ------- 2 2.0 3.2 44 53
r 3.417152 3 2 ack 576 ------- 2 3.2 2.0 1073 52
+ 3.417152 2 3 tcp 40 ------- 2 2.0 3.2 44 54
- 3.417152 2 3 tcp 40 ------- 2 2.0 3.2 44 54
r 3.462864 2 3 tcp 40 ------- 2 2.0 3.2 44 53
r 3.467472 2 3 tcp 40 ------- 2 2.0 3.2 44 54
+ 3.467472 3 2 ack 432 ------- 2 3.2 2.0 1609 55
- 3.467472 3 2 ack 432 ------- 2 3.2 2.0 1609 55
r 3.520928 3 2 ack 432 ------- 2 3.2 2.0 1609 55
+ 3.6 2 3 tcp 40 ------- 2 2.0 3.2 44 56
- 3.6 2 3 tcp 40 ------- 2 2.0 3.2 44 56
r 3.65032 2 3 tcp 40 ------- 2 2.0 3.2 44 56
+ 6 0 3 tcp 83 ---A--- 0 0.0 3.0 44 57
- 6 0 3 tcp 83 ---A--- 0 0.0 3.0 44 57
r 6.050664 0 3 tcp 83 ---A--- 0 0.0 3.0 44 57
+ 6.050664 3 4 tcp 90 ---A--- 3 3.3 4.0 144 58
- 6.050664 3 4 tcp 90 ---A--- 3 3.3 4.0 144 58
+ 6.1 3 0 ack 40 ------- 0 3.0 0.0 2001 59
- 6.1 3 0 ack 40 ------- 0 3.0 0.0 2001 59
r 6.101384 3 4 tcp 90 ---A--- 3 3.3 4.0 144 58
+ 6.101384 4 3 ack 83 ---A--- 3 4.0 3.3 2087 60
- 6.101384 4 3 ack 83 ---A--- 3 4.0 3.3 2087 60
r 6.15032 3 0 ack 40 ------- 0 3.0 0.0 2001 59
r 6.152048 4 3 ack 83 ---A--- 3 4.0 3.3 2087 60
+ 6.152048 3 0 ack 576 ---A--- 0 3.0 0.0 2001 61
- 6.152048 3 0 ack 576 ---A--- 0 3.0 0.0 2001 61
+ 6.2 3 4 tcp 40 ------- 3 3.3 4.0 194 62
- 6.2 3 4 tcp 40 ------- 3 3.3 4.0 194 62
r 6.206656 3 0 ack 576 ---A--- 0 3.0 0.0 2001 61
+ 6.206656 0 3 tcp 40 ------- 0 0.0 3.0 87 63
- 6.206656 0 3 tcp 40 ------- 0 0.0 3.0 87 63
r 6.25032 3 4 tcp 40 ------- 3 3.3 4.0 194 62
r 6.256976 0 3 tcp 40 ------- 0 0.0 3.0 87 63
+ 6.256976 3 0 ack 576 ------- 0 3.0 0.0 2537 64
- 6.256976 3 0 ack 576 ------- 0 3.0 0.0 2537 64
+ 6.256976 3 0 ack 576 ------- 0 3.0 0.0 3073 65
- 6.261584 3 0 ack 576 ------- 0 3.0 0.0 3073 65
r 6.311584 3 0 ack 576 ------- 0 3.0 0.0 2537 64
+ 6.311584 0 3 tcp 40 ------- 0 0.0 3.0 87 66
- 6.311584 0 3 tcp 40 ------- 0 0.0 3.0 87 66
r 6.316192 3 0 ack 576 ------- 0 3.0 0.0 3073 65
+ 6.316192 0 3 tcp 40 ------- 0 0.0 3.0 87 67
- 6.316192 0 3 tcp 40 ------- 0 0.0 3.0 87 67
r 6.361904 0 3 tcp 40 ------- 0 0.0 3.0 87 66
r 6.366512 0 3 tcp 40 ------- 0 0.0 3.0 87 67
+ 6.366512 3 0 ack 432 ------- 0 3.0 0.0 3609 68
- 6.366512 3 0 ack 432 ------- 0 3.0 0.0 3609 68
r 6.419968 3 0 ack 432 ------- 0 3.0 0.0 3609 68
+ 6.5 0 3 tcp 40 ------- 0 0.0 3.0 87 69
- 6.5 0 3 tcp 40 ------- 0 0.0 3.0 87 69
r 6.55032 0 3 tcp 40 ------- 0 0.0 3.0 87 69
+ 7 1 3 tcp 83 ---A--- 1 1.0 3.1 44 70
- 7 1 3 tcp 83 ---A--- 1 1.0 3.1 44 70
r 7.050664 1 3 tcp 83 ---A--- 1 1.0 3.1 44 70
+ 7.050664 3 4 tcp 90 ---A--- 3 3.3 4.0 194 71
- 7.050664 3 4 tcp 90 ---A--- 3 3.3 4.0 194 71
+ 7.1 3 1 ack 40 ------- 1 3.1 1.0 2001 72
- 7.1 3 1 ack 40 ------- 1 3.1 1.0 2001 72
r 7.101384 3 4 tcp 90 ---A--- 3 3.3 4.0 194 71
+ 7.101384 4 3 ack 83 ---A--- 3 4.0 3.3 2130 73
- 7.101384 4 3 ack 83 ---A--- 3 4.0 3.3 2130 73
r 7.15032 3 1 ack 40 ------- 1 3.1 1.0 2001 72
r 7.152048 4 3 ack 83 ---A--- 3 4.0 3.3 2130 73
+ 7.152048 3 1 ack 576 ---A--- 1 3.1 1.0 2001 74
- 7.152048 3 1 ack 576 ---A--- 1 3.1 1.0 2001 74
+ 7.2 3 4 tcp 40 ------- 3 3.3 4.0 244 75
- 7.2 3 4 tcp 40 ------- 3 3.3 4.0 244 75
r 7.206656 3 1 ack 576 ---A--- 1 3.1 1.0 2001 74
+ 7.206656 1 3 tcp 40 ------- 1 1.0 3.1 87 76
- 7.206656 1 3 tcp 40 ------- 1 1.0 3.1 87 76
r 7.25032 3 4 tcp 40 ------- 3 3.3 4.0 244 75
r 7.256976 1 3 tcp 40 ------- 1 1.0 3.1 87 76
+ 7.256976 3 1 ack 576 ------- 1 3.1 1.0 2537 77
- 7.256976 3 1 ack 576 ------- 1 3.1 1.0 2537 77
+ 7.256976 3 1 ack 576 ------- 1 3.1 1.0 3073 78
- 7.261584 3 1 ack 576 ------- 1 3.1 1.0 3073 78
r 7.311584 3 1 ack 576 ------- 1 3.1 1.0 2537 77
+ 7.311584 1 3 tcp 40 ------- 1 1.0 3.1 87 79
- 7.311584 1 3 tcp 40 ------- 1 1.0 3.1 87 79
r 7.316192 3 1 ack 576 ------- 1 3.1 1.0 3073 78
+ 7.316192 1 3 tcp 40 ------- 1 1.0 3.1 87 80
- 7.316192 1 3 tcp 40 ------- 1 1.0 3.1 87 80
r 7.361904 1 3 tcp 40 ------- 1 1.0 3.1 87 79
r 7.366512 1 3 tcp 40 ------- 1 1.0 3.1 87 80
+ 7.366512 3 1 ack 432 ------- 1 3.1 1.0 3609 81
- 7.366512 3 1 ack 432 ------- 1 3.1 1.0 3609 81
r 7.419968 3 1 ack 432 ------- 1 3.1 1.0 3609 81
+ 7.5 1 3 tcp 40 ------- 1 1.0 3.1 87 82
- 7.5 1 3 tcp 40 ------- 1 1.0 3.1 87 82
r 7.55032 1 3 tcp 40 ------- 1 1.0 3.1 87 82
+ 8 2 3 tcp 83 ---A--- 2 2.0 3.2 44 83
- 8 2 3 tcp 83 ---A--- 2 2.0 3.2 44 83
r 8.050664 2 3 tcp 83 ---A--- 2 2.0 3.2 44 83
+ 8.050664 3 4 tcp 90 ---A--- 3 3.3 4.0 244 84
- 8.050664 3 4 tcp 90 ---A--- 3 3.3 4.0 244 84
+ 8.1 3 2 ack 40 ------- 2 3.2 2.0 2001 85
- 8.1 3 2 ack 40 ------- 2 3.2 2.0 2001 85
r 8.101384 3 4 tcp 90 ---A--- 3 3.3 4.0 244 84
+ 8.101384 4 3 ack 83 ---A--- 3 4.0 3.3 2173 86
- 8.101384 4 3 ack 83 ---A--- 3 4.0 3.3 2173 86
r 8.15032 3 2 ack 40 ------- 2 3.2 2.0 2001 85
r 8.152048 4 3 ack 83 ---A--- 3 4.0 3.3 2173 86
+ 8.152048 3 2 ack 576 ---A--- 2 3.2 2.0 2001 87
- 8.152048 3 2 ack 576 ---A--- 2 3.2 2.0 2001 87
+ 8.2 3 4 tcp 40 ------- 3 3.3 4.0 294 88
- 8.2 3 4 tcp 40 ------- 3 3.3 4.0 294 88
r 8.206656 3 2 ack 576 ---A--- 2 3.2 2.0 2001 87
+ 8.206656 2 3 tcp 40 ------- 2 2.0 3.2 87 89
- 8.206656 2 3 tcp 40 ------- 2 2.0 3.2 87 89
r 8.25032 3 4 tcp 40 ------- 3 3.3 4.0 294 88
r 8.256976 2 3 tcp 40 ------- 2 2.0 3.2 87 89
+ 8.256976 3 2 ack 576 ------- 2 3.2 2.0 2537 90
- 8.256976 3 2 ack 576 ------- 2 3.2 2.0 2537 90
+ 8.256976 3 2 ack 576 ------- 2 3.2 2.0 3073 91
- 8.261584 3 2 ack 576 ------- 2 3.2 2.0 3073 91
r 8.311584 3 2 ack 576 ------- 2 3.2 2.0 2537 90
+ 8.311584 2 3 tcp 40 ------- 2 2.0 3.2 87 92
- 8.311584 2 3 tcp 40 ------- 2 2.0 3.2 87 92
r 8.316192 3 2 ack 576 ------- 2 3.2 2.0 3073 91
+ 8.316192 2 3 tcp 40 ------- 2 2.0 3.2 87 93
- 8.316192 2 3 tcp 40 ------- 2 2.0 3.2 87 93
r 8.361904 2 3 tcp 40 ------- 2 2.0 3.2 87 92
r 8.366512 2 3 tcp 40 ------- 2 2.0 3.2 87 93
+ 8.366512 3 2 ack 432 ------- 2 3.2 2.0 3609 94
- 8.366512 3 2 ack 432 ------- 2 3.2 2.0 3609 94
r 8.419968 3 2 ack 432 ------- 2 3.2 2.0 3609 94
+ 8.5 2 3 tcp 40 ------- 2 2.0 3.2 87 95
- 8.5 2 3 tcp 40 ------- 2 2.0 3.2 87 95
r 8.55032 2 3 tcp 40 ------- 2 2.0 3.2 87 95
+ 10 3 0 ack 40 ------- 0 3.0 0.0 4001 96
- 10 3 0 ack 40 ------- 0 3.0 0.0 4001 96
+ 10 0 3 tcp 40 ------- 0 0.0 3.0 87 97
- 10 0 3 tcp 40 ------- 0 0.0 3.0 87 97
+ 10 3 1 ack 40 ------- 1 3.1 1.0 4001 98
- 10 3 1 ack 40 ------- 1 3.1 1.0 4001 98
+ 10 1 3 tcp 40 ------- 1 1.0 3.1 87 99
- 10 1 3 tcp 40 ------- 1 1.0 3.1 87 99
+ 10 3 2 ack 40 ------- 2 3.2 2.0 4001 100
- 10 3 2 ack 40 ------- 2 3.2 2.0 4001 100
+ 10 2 3 tcp 40 ------- 2 2.0 3.2 87 101
- 10 2 3 tcp 40 ------- 2 2.0 3.2 87 101
+ 10 4 3 ack 40 ------- 3 4.0 3.3 2216 102
- 10 4 3 ack 40 ------- 3 4.0 3.3 2216 102
+ 10 3 4 tcp 40 ------- 3 3.3 4.0 294 103
- 10 3 4 tcp 40 ------- 3 3.3 4.0 294 103
r 10.05032 3 0 ack 40 ------- 0 3.0 0.0 4001 96
+ 10.05032 0 3 tcp 40 ------- 0 0.0 3.0 87 104
- 10.05032 0 3 tcp 40 ------- 0 0.0 3.0 87 104
r 10.05032 0 3 tcp 40 ------- 0 0.0 3.0 87 97
+ 10.05032 3 0 ack 40 ------- 0 3.0 0.0 4001 105
- 10.05032 3 0 ack 40 ------- 0 3.0 0.0 4001 105
r 10.05032 3 1 ack 40 ------- 1 3.1 1.0 4001 98
+ 10.05032 1 3 tcp 40 ------- 1 1.0 3.1 87 106
- 10.05032 1 3 tcp 40 ------- 1 1.0 3.1 87 106
r 10.05032 1 3 tcp 40 ------- 1 1.0 3.1 87 99
+ 10.05032 3 1 ack 40 ------- 1 3.1 1.0 4001 107
- 10.05032 3 1 ack 40 ------- 1 3.1 1.0 4001 107
r 10.05032 3 2 ack 40 ------- 2 3.2 2.0 4001 100
+ 10.05032 2 3 tcp 40 ------- 2 2.0 3.2 87 108
- 10.05032 2 3 tcp 40 ------- 2 2.0 3.2 87 108
r 10.05032 2 3 tcp 40 ------- 2 2.0 3.2 87 101
+ 10.05032 3 2 ack 40 ------- 2 3.2 2.0 4001 109
- 10.05032 3 2 ack 40 ------- 2 3.2 2.0 4001 109
r 10.05032 4 3 ack 40 ------- 3 4.0 3.3 2216 102
+ 10.05032 3 4 tcp 40 ------- 3 3.3 4.0 294 110
- 10.05032 3 4 tcp 40 ------- 3 3.3 4.0 294 110
r 10.05032 3 4 tcp 40 ------- 3 3.3 4.0 294 103
+ 10.05032 4 3 ack 40 ------- 3 4.0 3.3 2216 111
- 10.05032 4 3 ack 40 ------- 3 4.0 3.3 2216 111
r 10.10064 0 3 tcp 40 ------- 0 0.0 3.0 87 104
r 10.10064 3 0 ack 40 ------- 0 3.0 0.0 4001 105
r 10.10064 1 3 tcp 40 ------- 1 1.0 3.1 87 106
r 10.10064 3 1 ack 40 ------- 1 3.1 1.0 4001 107
r 10.10064 2 3 tcp 40 ------- 2 2.0 3.2 87 108
r 10.10064 3 2 ack 40 ------- 2 3.2 2.0 4001 109
r 10.10064 3 4 tcp 40 ------- 3 3.3 4.0 294 110
r 10.10064 4 3 ack 40 ------- 3 4.0 3.3 2216 111
