# TESTNAME: http3
# TOPOLOGY: 5node
# avg-comp-page-age: 40000
# avg-page-age: 60
# avg-page-size: 1024
# avg-req-interval: 60
# client-req-size: 43
# comp-page-size: 51200
# duration: 500
# enable-log: 0
# hb-interval: 30
# max-page-age: 70
# max-page-size: 50000
# max-req-interval: 70
# min-page-age: 50
# min-page-size: 100
# min-req-interval: 50
# nam-trace-all: 1
# ns-random-seed: 188312339
# num-2nd-cache: 5
# num-comp-pages: 1
# prot: http3
# scheduler-type: Calendar
# single-page: 1
# ttl: 0.1
# upd-interval: 5
# xtrace-page: webtrace-pglog
# xtrace-req: webtrace-reqlog
+ 1 0 3 tcp 83 ------- 0 0.0 3.0 1 0
- 1 0 3 tcp 83 ------- 0 0.0 3.0 1 0
r 1.050664 0 3 tcp 83 ------- 0 0.0 3.0 1 0
+ 1.050664 3 4 tcp 83 ------- 3 3.3 4.0 1 1
- 1.050664 3 4 tcp 83 ------- 3 3.3 4.0 1 1
r 1.101328 3 4 tcp 83 ------- 3 3.3 4.0 1 1
+ 1.101328 4 3 tcp 2040 ------- 3 4.0 3.3 1 2
- 1.101328 4 3 tcp 2040 ------- 3 4.0 3.3 1 2
r 1.167648 4 3 tcp 2040 ------- 3 4.0 3.3 1 2
+ 1.167648 3 0 tcp 2040 ------- 0 3.0 0.0 1 3
- 1.167648 3 0 tcp 2040 ------- 0 3.0 0.0 1 3
r 1.233968 3 0 tcp 2040 ------- 0 3.0 0.0 1 3
+ 2 1 3 tcp 83 ------- 1 1.0 3.1 1 4
- 2 1 3 tcp 83 ------- 1 1.0 3.1 1 4
r 2.050664 1 3 tcp 83 ------- 1 1.0 3.1 1 4
+ 2.050664 3 1 tcp 2040 ------- 1 3.1 1.0 1 5
- 2.050664 3 1 tcp 2040 ------- 1 3.1 1.0 1 5
r 2.116984 3 1 tcp 2040 ------- 1 3.1 1.0 1 5
+ 3 2 3 tcp 83 ------- 2 2.0 3.2 1 6
- 3 2 3 tcp 83 ------- 2 2.0 3.2 1 6
r 3.050664 2 3 tcp 83 ------- 2 2.0 3.2 1 6
+ 3.050664 3 2 tcp 2040 ------- 2 3.2 2.0 1 7
- 3.050664 3 2 tcp 2040 ------- 2 3.2 2.0 1 7
r 3.116984 3 2 tcp 2040 ------- 2 3.2 2.0 1 7
+ 5 0 3 tcp 83 ------- 0 0.0 3.0 2 8
- 5 0 3 tcp 83 ------- 0 0.0 3.0 2 8
r 5.050664 0 3 tcp 83 ------- 0 0.0 3.0 2 8
+ 5.050664 3 0 tcp 2040 ------- 0 3.0 0.0 2 9
- 5.050664 3 0 tcp 2040 ------- 0 3.0 0.0 2 9
r 5.116984 3 0 tcp 2040 ------- 0 3.0 0.0 2 9
+ 6 1 3 tcp 83 ------- 1 1.0 3.1 2 10
- 6 1 3 tcp 83 ------- 1 1.0 3.1 2 10
r 6.050664 1 3 tcp 83 ------- 1 1.0 3.1 2 10
+ 6.050664 3 1 tcp 2040 ------- 1 3.1 1.0 2 11
- 6.050664 3 1 tcp 2040 ------- 1 3.1 1.0 2 11
r 6.116984 3 1 tcp 2040 ------- 1 3.1 1.0 2 11
+ 7 2 3 tcp 83 ------- 2 2.0 3.2 2 12
- 7 2 3 tcp 83 ------- 2 2.0 3.2 2 12
r 7.050664 2 3 tcp 83 ------- 2 2.0 3.2 2 12
+ 7.050664 3 2 tcp 2040 ------- 2 3.2 2.0 2 13
- 7.050664 3 2 tcp 2040 ------- 2 3.2 2.0 2 13
r 7.116984 3 2 tcp 2040 ------- 2 3.2 2.0 2 13
+ 9.9 0 3 tcp 83 ------- 4 0.0 3.0 1 14
- 9.9 0 3 tcp 83 ------- 4 0.0 3.0 1 14
r 9.950664 0 3 tcp 83 ------- 4 0.0 3.0 1 14
+ 9.950664 3 0 tcp 2040 ------- 4 3.0 0.0 1 15
- 9.950664 3 0 tcp 2040 ------- 4 3.0 0.0 1 15
+ 10 1 3 tcp 83 ------- 5 1.0 3.1 1 16
- 10 1 3 tcp 83 ------- 5 1.0 3.1 1 16
r 10.016984 3 0 tcp 2040 ------- 4 3.0 0.0 1 15
r 10.050664 1 3 tcp 83 ------- 5 1.0 3.1 1 16
+ 10.050664 3 1 tcp 2040 ------- 5 3.1 1.0 1 17
- 10.050664 3 1 tcp 2040 ------- 5 3.1 1.0 1 17
r 10.116984 3 1 tcp 2040 ------- 5 3.1 1.0 1 17
+ 10.9 1 3 tcp 83 ------- 5 1.0 3.1 2 18
- 10.9 1 3 tcp 83 ------- 5 1.0 3.1 2 18
r 10.950664 1 3 tcp 83 ------- 5 1.0 3.1 2 18
+ 10.950664 3 1 tcp 2040 ------- 5 3.1 1.0 2 19
- 10.950664 3 1 tcp 2040 ------- 5 3.1 1.0 2 19
+ 11 2 3 tcp 83 ------- 6 2.0 3.2 1 20
- 11 2 3 tcp 83 ------- 6 2.0 3.2 1 20
r 11.016984 3 1 tcp 2040 ------- 5 3.1 1.0 2 19
r 11.050664 2 3 tcp 83 ------- 6 2.0 3.2 1 20
+ 11.050664 3 2 tcp 2040 ------- 6 3.2 2.0 1 21
- 11.050664 3 2 tcp 2040 ------- 6 3.2 2.0 1 21
r 11.116984 3 2 tcp 2040 ------- 6 3.2 2.0 1 21
+ 11.9 2 3 tcp 83 ------- 6 2.0 3.2 2 22
- 11.9 2 3 tcp 83 ------- 6 2.0 3.2 2 22
r 11.950664 2 3 tcp 83 ------- 6 2.0 3.2 2 22
+ 11.950664 3 2 tcp 2040 ------- 6 3.2 2.0 2 23
- 11.950664 3 2 tcp 2040 ------- 6 3.2 2.0 2 23
r 12.016984 3 2 tcp 2040 ------- 6 3.2 2.0 2 23
+ 13 0 3 tcp 83 ------- 4 0.0 3.0 2 24
- 13 0 3 tcp 83 ------- 4 0.0 3.0 2 24
r 13.050664 0 3 tcp 83 ------- 4 0.0 3.0 2 24
+ 13.050664 3 0 tcp 2040 ------- 4 3.0 0.0 2 25
- 13.050664 3 0 tcp 2040 ------- 4 3.0 0.0 2 25
r 13.116984 3 0 tcp 2040 ------- 4 3.0 0.0 2 25
+ 13.9 0 3 tcp 83 ------- 4 0.0 3.0 3 26
- 13.9 0 3 tcp 83 ------- 4 0.0 3.0 3 26
r 13.950664 0 3 tcp 83 ------- 4 0.0 3.0 3 26
+ 13.950664 3 0 tcp 2040 ------- 4 3.0 0.0 3 27
- 13.950664 3 0 tcp 2040 ------- 4 3.0 0.0 3 27
+ 14 1 3 tcp 83 ------- 5 1.0 3.1 3 28
- 14 1 3 tcp 83 ------- 5 1.0 3.1 3 28
r 14.016984 3 0 tcp 2040 ------- 4 3.0 0.0 3 27
r 14.050664 1 3 tcp 83 ------- 5 1.0 3.1 3 28
+ 14.050664 3 1 tcp 2040 ------- 5 3.1 1.0 3 29
- 14.050664 3 1 tcp 2040 ------- 5 3.1 1.0 3 29
r 14.116984 3 1 tcp 2040 ------- 5 3.1 1.0 3 29
+ 14.9 1 3 tcp 83 ------- 5 1.0 3.1 4 30
- 14.9 1 3 tcp 83 ------- 5 1.0 3.1 4 30
r 14.950664 1 3 tcp 83 ------- 5 1.0 3.1 4 30
+ 14.950664 3 1 tcp 2040 ------- 5 3.1 1.0 4 31
- 14.950664 3 1 tcp 2040 ------- 5 3.1 1.0 4 31
+ 15 2 3 tcp 83 ------- 6 2.0 3.2 3 32
- 15 2 3 tcp 83 ------- 6 2.0 3.2 3 32
r 15.016984 3 1 tcp 2040 ------- 5 3.1 1.0 4 31
r 15.050664 2 3 tcp 83 ------- 6 2.0 3.2 3 32
+ 15.050664 3 2 tcp 2040 ------- 6 3.2 2.0 3 33
- 15.050664 3 2 tcp 2040 ------- 6 3.2 2.0 3 33
r 15.116984 3 2 tcp 2040 ------- 6 3.2 2.0 3 33
+ 15.9 2 3 tcp 83 ------- 6 2.0 3.2 4 34
- 15.9 2 3 tcp 83 ------- 6 2.0 3.2 4 34
r 15.950664 2 3 tcp 83 ------- 6 2.0 3.2 4 34
+ 15.950664 3 2 tcp 2040 ------- 6 3.2 2.0 4 35
- 15.950664 3 2 tcp 2040 ------- 6 3.2 2.0 4 35
r 16.016984 3 2 tcp 2040 ------- 6 3.2 2.0 4 35
+ 17 0 3 tcp 83 ------- 4 0.0 3.0 4 36
- 17 0 3 tcp 83 ------- 4 0.0 3.0 4 36
r 17.050664 0 3 tcp 83 ------- 4 0.0 3.0 4 36
+ 17.050664 3 0 tcp 2040 ------- 4 3.0 0.0 4 37
- 17.050664 3 0 tcp 2040 ------- 4 3.0 0.0 4 37
r 17.116984 3 0 tcp 2040 ------- 4 3.0 0.0 4 37
+ 17.9 0 3 tcp 83 ------- 4 0.0 3.0 5 38
- 17.9 0 3 tcp 83 ------- 4 0.0 3.0 5 38
r 17.950664 0 3 tcp 83 ------- 4 0.0 3.0 5 38
+ 17.950664 3 0 tcp 2040 ------- 4 3.0 0.0 5 39
- 17.950664 3 0 tcp 2040 ------- 4 3.0 0.0 5 39
+ 18 1 3 tcp 83 ------- 5 1.0 3.1 5 40
- 18 1 3 tcp 83 ------- 5 1.0 3.1 5 40
r 18.016984 3 0 tcp 2040 ------- 4 3.0 0.0 5 39
r 18.050664 1 3 tcp 83 ------- 5 1.0 3.1 5 40
+ 18.050664 3 1 tcp 2040 ------- 5 3.1 1.0 5 41
- 18.050664 3 1 tcp 2040 ------- 5 3.1 1.0 5 41
r 18.116984 3 1 tcp 2040 ------- 5 3.1 1.0 5 41
+ 18.9 1 3 tcp 83 ------- 5 1.0 3.1 6 42
- 18.9 1 3 tcp 83 ------- 5 1.0 3.1 6 42
r 18.950664 1 3 tcp 83 ------- 5 1.0 3.1 6 42
+ 18.950664 3 1 tcp 2040 ------- 5 3.1 1.0 6 43
- 18.950664 3 1 tcp 2040 ------- 5 3.1 1.0 6 43
r 19.016984 3 1 tcp 2040 ------- 5 3.1 1.0 6 43
