# TESTNAME: Liveness
# TOPOLOGY: cache4d
# avg-comp-page-age: 40000
# avg-page-age: 60
# avg-page-size: 1024
# avg-req-interval: 60
# client-req-size: 43
# comp-page-size: 51200
# duration: 1200
# enable-log: 0
# hb-interval: 30
# max-page-age: 70
# max-page-size: 50000
# max-req-interval: 70
# min-page-age: 50
# min-page-size: 100
# min-req-interval: 50
# nam-trace-all: 1
# ns-random-seed: 188312339
# num-2nd-cache: 5
# num-comp-pages: 1
# prot: Liveness
# scheduler-type: Calendar
# single-page: 1
# ttl: 0.1
# upd-interval: 5
# xtrace-page: webtrace-pglog
# xtrace-req: webtrace-reqlog
v 10 eval {set sim_annotation {10 1 join-group 2147483648}}
v 10 eval {set sim_annotation {10 2 join-group 2147483648}}
v 10 eval {set sim_annotation {10 3 join-group 2147483648}}
v 10 eval {set sim_annotation {2147483648 switch tree type}}
v 10 eval {set sim_annotation {10 2 join-group 2147483649}}
v 10 eval {set sim_annotation {10 4 join-group 2147483649}}
v 10 eval {set sim_annotation {10 5 join-group 2147483649}}
v 10 eval {set sim_annotation {2147483649 switch tree type}}
v 10 eval {set sim_annotation {10 3 join-group 2147483650}}
v 10 eval {set sim_annotation {10 6 join-group 2147483650}}
v 10 eval {set sim_annotation {10 7 join-group 2147483650}}
v 10 eval {set sim_annotation {2147483650 switch tree type}}
+ 10 0 4 tcp 40 ------- 11 0.2 4.3 0 0
- 10 0 4 tcp 40 ------- 11 0.2 4.3 0 0
r 10.010032 0 4 tcp 40 ------- 11 0.2 4.3 0 0
+ 10.010032 4 0 ack 40 ------- 11 4.3 0.2 0 1
- 10.010032 4 0 ack 40 ------- 11 4.3 0.2 0 1
r 10.020064 4 0 ack 40 ------- 11 4.3 0.2 0 1
+ 10.020064 0 4 tcp 40 ------- 11 0.2 4.3 1 2
- 10.020064 0 4 tcp 40 ------- 11 0.2 4.3 1 2
+ 10.020064 0 4 tcp 50 ------- 11 0.2 4.3 1 3
- 10.020096 0 4 tcp 50 ------- 11 0.2 4.3 1 3
r 10.030096 0 4 tcp 40 ------- 11 0.2 4.3 1 2
r 10.030136 0 4 tcp 50 ------- 11 0.2 4.3 1 3
+ 10.030136 4 2 tcp 40 ------- 6 4.2 2.2 0 4
- 10.030136 4 2 tcp 40 ------- 6 4.2 2.2 0 4
r 10.040349 4 2 tcp 40 ------- 6 4.2 2.2 0 4
+ 10.040349 2 4 ack 40 ------- 6 2.2 4.2 0 5
- 10.040349 2 4 ack 40 ------- 6 2.2 4.2 0 5
r 10.050563 2 4 ack 40 ------- 6 2.2 4.2 0 5
+ 10.050563 4 2 tcp 40 ------- 6 4.2 2.2 1 6
- 10.050563 4 2 tcp 40 ------- 6 4.2 2.2 1 6
+ 10.050563 4 2 tcp 50 ------- 6 4.2 2.2 1 7
- 10.050776 4 2 tcp 50 ------- 6 4.2 2.2 1 7
r 10.060776 4 2 tcp 40 ------- 6 4.2 2.2 1 6
r 10.061043 4 2 tcp 50 ------- 6 4.2 2.2 1 7
+ 10.061043 2 12 tcp 40 ------- 4 2.1 1.1 0 8
- 10.061043 2 12 tcp 40 ------- 4 2.1 1.1 0 8
+ 10.1 4 0 ack 40 ------- 11 4.3 0.2 1 9
- 10.1 4 0 ack 40 ------- 11 4.3 0.2 1 9
+ 10.1 2 4 ack 40 ------- 6 2.2 4.2 1 10
- 10.1 2 4 ack 40 ------- 6 2.2 4.2 1 10
r 10.110032 4 0 ack 40 ------- 11 4.3 0.2 1 9
r 10.110213 2 4 ack 40 ------- 6 2.2 4.2 1 10
r 10.111256 2 12 tcp 40 ------- 4 2.1 1.1 0 8
+ 10.111256 12 1 tcp 40 ------- 4 2.1 1.1 0 8
- 10.111256 12 1 tcp 40 ------- 4 2.1 1.1 0 8
r 10.112259 12 1 tcp 40 ------- 4 2.1 1.1 0 8
+ 10.112259 1 12 ack 40 ------- 4 1.1 2.1 0 11
- 10.112259 1 12 ack 40 ------- 4 1.1 2.1 0 11
r 10.113262 1 12 ack 40 ------- 4 1.1 2.1 0 11
+ 10.113262 12 2 ack 40 ------- 4 1.1 2.1 0 11
- 10.113262 12 2 ack 40 ------- 4 1.1 2.1 0 11
r 10.163476 12 2 ack 40 ------- 4 1.1 2.1 0 11
+ 10.163476 2 12 tcp 40 ------- 4 2.1 1.1 1 12
- 10.163476 2 12 tcp 40 ------- 4 2.1 1.1 1 12
+ 10.163476 2 12 tcp 50 ------- 4 2.1 1.1 1 13
- 10.163689 2 12 tcp 50 ------- 4 2.1 1.1 1 13
r 10.213689 2 12 tcp 40 ------- 4 2.1 1.1 1 12
+ 10.213689 12 1 tcp 40 ------- 4 2.1 1.1 1 12
- 10.213689 12 1 tcp 40 ------- 4 2.1 1.1 1 12
r 10.213956 2 12 tcp 50 ------- 4 2.1 1.1 1 13
+ 10.213956 12 1 tcp 50 ------- 4 2.1 1.1 1 13
- 10.213956 12 1 tcp 50 ------- 4 2.1 1.1 1 13
r 10.214692 12 1 tcp 40 ------- 4 2.1 1.1 1 12
r 10.21496 12 1 tcp 50 ------- 4 2.1 1.1 1 13
+ 10.3 1 12 ack 40 ------- 4 1.1 2.1 1 14
- 10.3 1 12 ack 40 ------- 4 1.1 2.1 1 14
r 10.301003 1 12 ack 40 ------- 4 1.1 2.1 1 14
+ 10.301003 12 2 ack 40 ------- 4 1.1 2.1 1 14
- 10.301003 12 2 ack 40 ------- 4 1.1 2.1 1 14
r 10.351217 12 2 ack 40 ------- 4 1.1 2.1 1 14
+ 20 8 4 tcp 40 ------- 0 8.1 4.1 0 15
- 20 8 4 tcp 40 ------- 0 8.1 4.1 0 15
+ 20 9 5 tcp 40 ------- 1 9.1 5.1 0 16
- 20 9 5 tcp 40 ------- 1 9.1 5.1 0 16
+ 20 10 6 tcp 40 ------- 2 10.1 6.1 0 17
- 20 10 6 tcp 40 ------- 2 10.1 6.1 0 17
+ 20 11 7 tcp 40 ------- 3 11.1 7.1 0 18
- 20 11 7 tcp 40 ------- 3 11.1 7.1 0 18
r 20.001032 8 4 tcp 40 ------- 0 8.1 4.1 0 15
+ 20.001032 4 8 ack 40 ------- 0 4.1 8.1 0 19
- 20.001032 4 8 ack 40 ------- 0 4.1 8.1 0 19
r 20.001032 9 5 tcp 40 ------- 1 9.1 5.1 0 16
+ 20.001032 5 9 ack 40 ------- 1 5.1 9.1 0 20
- 20.001032 5 9 ack 40 ------- 1 5.1 9.1 0 20
r 20.001032 10 6 tcp 40 ------- 2 10.1 6.1 0 17
+ 20.001032 6 10 ack 40 ------- 2 6.1 10.1 0 21
- 20.001032 6 10 ack 40 ------- 2 6.1 10.1 0 21
r 20.001032 11 7 tcp 40 ------- 3 11.1 7.1 0 18
+ 20.001032 7 11 ack 40 ------- 3 7.1 11.1 0 22
- 20.001032 7 11 ack 40 ------- 3 7.1 11.1 0 22
r 20.002064 4 8 ack 40 ------- 0 4.1 8.1 0 19
+ 20.002064 8 4 tcp 40 ------- 0 8.1 4.1 1 23
- 20.002064 8 4 tcp 40 ------- 0 8.1 4.1 1 23
+ 20.002064 8 4 tcp 83 ------- 0 8.1 4.1 1 24
r 20.002064 5 9 ack 40 ------- 1 5.1 9.1 0 20
+ 20.002064 9 5 tcp 40 ------- 1 9.1 5.1 1 25
- 20.002064 9 5 tcp 40 ------- 1 9.1 5.1 1 25
+ 20.002064 9 5 tcp 83 ------- 1 9.1 5.1 1 26
r 20.002064 6 10 ack 40 ------- 2 6.1 10.1 0 21
+ 20.002064 10 6 tcp 40 ------- 2 10.1 6.1 1 27
- 20.002064 10 6 tcp 40 ------- 2 10.1 6.1 1 27
+ 20.002064 10 6 tcp 83 ------- 2 10.1 6.1 1 28
r 20.002064 7 11 ack 40 ------- 3 7.1 11.1 0 22
+ 20.002064 11 7 tcp 40 ------- 3 11.1 7.1 1 29
- 20.002064 11 7 tcp 40 ------- 3 11.1 7.1 1 29
+ 20.002064 11 7 tcp 83 ------- 3 11.1 7.1 1 30
- 20.002096 8 4 tcp 83 ------- 0 8.1 4.1 1 24
- 20.002096 9 5 tcp 83 ------- 1 9.1 5.1 1 26
- 20.002096 10 6 tcp 83 ------- 2 10.1 6.1 1 28
- 20.002096 11 7 tcp 83 ------- 3 11.1 7.1 1 30
r 20.003096 8 4 tcp 40 ------- 0 8.1 4.1 1 23
r 20.003096 9 5 tcp 40 ------- 1 9.1 5.1 1 25
r 20.003096 10 6 tcp 40 ------- 2 10.1 6.1 1 27
r 20.003096 11 7 tcp 40 ------- 3 11.1 7.1 1 29
r 20.003162 8 4 tcp 83 ------- 0 8.1 4.1 1 24
+ 20.003162 4 0 ack 83 ------- 11 4.3 0.2 1 31
- 20.003162 4 0 ack 83 ------- 11 4.3 0.2 1 31
r 20.003162 9 5 tcp 83 ------- 1 9.1 5.1 1 26
+ 20.003162 5 2 tcp 40 ------- 7 5.2 2.3 0 32
- 20.003162 5 2 tcp 40 ------- 7 5.2 2.3 0 32
r 20.003162 10 6 tcp 83 ------- 2 10.1 6.1 1 28
+ 20.003162 6 3 tcp 40 ------- 8 6.2 3.2 0 33
- 20.003162 6 3 tcp 40 ------- 8 6.2 3.2 0 33
r 20.003162 11 7 tcp 83 ------- 3 11.1 7.1 1 30
+ 20.003162 7 3 tcp 40 ------- 9 7.2 3.3 0 34
- 20.003162 7 3 tcp 40 ------- 9 7.2 3.3 0 34
r 20.013229 4 0 ack 83 ------- 11 4.3 0.2 1 31
+ 20.013229 0 4 tcp 576 ---A--- 11 0.2 4.3 11 35
- 20.013229 0 4 tcp 576 ---A--- 11 0.2 4.3 11 35
r 20.013376 5 2 tcp 40 ------- 7 5.2 2.3 0 32
+ 20.013376 2 5 ack 40 ------- 7 2.3 5.2 0 36
- 20.013376 2 5 ack 40 ------- 7 2.3 5.2 0 36
r 20.013376 6 3 tcp 40 ------- 8 6.2 3.2 0 33
+ 20.013376 3 6 ack 40 ------- 8 3.2 6.2 0 37
- 20.013376 3 6 ack 40 ------- 8 3.2 6.2 0 37
r 20.013376 7 3 tcp 40 ------- 9 7.2 3.3 0 34
+ 20.013376 3 7 ack 40 ------- 9 3.3 7.2 0 38
- 20.013376 3 7 ack 40 ------- 9 3.3 7.2 0 38
r 20.023589 2 5 ack 40 ------- 7 2.3 5.2 0 36
+ 20.023589 5 2 tcp 40 ------- 7 5.2 2.3 1 39
- 20.023589 5 2 tcp 40 ------- 7 5.2 2.3 1 39
+ 20.023589 5 2 tcp 83 ------- 7 5.2 2.3 1 40
r 20.023589 3 6 ack 40 ------- 8 3.2 6.2 0 37
+ 20.023589 6 3 tcp 40 ------- 8 6.2 3.2 1 41
- 20.023589 6 3 tcp 40 ------- 8 6.2 3.2 1 41
+ 20.023589 6 3 tcp 83 ------- 8 6.2 3.2 1 42
r 20.023589 3 7 ack 40 ------- 9 3.3 7.2 0 38
+ 20.023589 7 3 tcp 40 ------- 9 7.2 3.3 1 43
- 20.023589 7 3 tcp 40 ------- 9 7.2 3.3 1 43
+ 20.023589 7 3 tcp 83 ------- 9 7.2 3.3 1 44
r 20.02369 0 4 tcp 576 ---A--- 11 0.2 4.3 11 35
+ 20.02369 4 0 ack 40 ------- 11 4.3 0.2 44 45
- 20.02369 4 0 ack 40 ------- 11 4.3 0.2 44 45
- 20.023802 5 2 tcp 83 ------- 7 5.2 2.3 1 40
- 20.023802 6 3 tcp 83 ------- 8 6.2 3.2 1 42
- 20.023802 7 3 tcp 83 ------- 9 7.2 3.3 1 44
r 20.033722 4 0 ack 40 ------- 11 4.3 0.2 44 45
+ 20.033722 0 4 tcp 528 ------- 11 0.2 4.3 547 46
- 20.033722 0 4 tcp 528 ------- 11 0.2 4.3 547 46
r 20.033802 5 2 tcp 40 ------- 7 5.2 2.3 1 39
r 20.033802 6 3 tcp 40 ------- 8 6.2 3.2 1 41
r 20.033802 7 3 tcp 40 ------- 9 7.2 3.3 1 43
r 20.034245 5 2 tcp 83 ------- 7 5.2 2.3 1 40
+ 20.034245 2 4 ack 83 ------- 6 2.2 4.2 1 47
- 20.034245 2 4 ack 83 ------- 6 2.2 4.2 1 47
r 20.034245 6 3 tcp 83 ------- 8 6.2 3.2 1 42
+ 20.034245 3 12 tcp 40 ------- 5 3.1 1.2 0 48
- 20.034245 3 12 tcp 40 ------- 5 3.1 1.2 0 48
r 20.034245 7 3 tcp 83 ------- 9 7.2 3.3 1 44
r 20.044144 0 4 tcp 528 ------- 11 0.2 4.3 547 46
+ 20.044144 4 8 ack 576 ------- 0 4.1 8.1 1 49
- 20.044144 4 8 ack 576 ------- 0 4.1 8.1 1 49
r 20.044688 2 4 ack 83 ------- 6 2.2 4.2 1 47
+ 20.044688 4 2 tcp 576 ---A--- 6 4.2 2.2 11 50
- 20.044688 4 2 tcp 576 ---A--- 6 4.2 2.2 11 50
r 20.045605 4 8 ack 576 ------- 0 4.1 8.1 1 49
+ 20.045605 8 4 tcp 40 ------- 0 8.1 4.1 44 51
- 20.045605 8 4 tcp 40 ------- 0 8.1 4.1 44 51
r 20.046637 8 4 tcp 40 ------- 0 8.1 4.1 44 51
+ 20.046637 4 8 ack 528 ------- 0 4.1 8.1 537 52
- 20.046637 4 8 ack 528 ------- 0 4.1 8.1 537 52
r 20.048059 4 8 ack 528 ------- 0 4.1 8.1 537 52
r 20.05776 4 2 tcp 576 ---A--- 6 4.2 2.2 11 50
+ 20.05776 2 4 ack 40 ------- 6 2.2 4.2 44 53
- 20.05776 2 4 ack 40 ------- 6 2.2 4.2 44 53
r 20.067973 2 4 ack 40 ------- 6 2.2 4.2 44 53
+ 20.067973 4 2 tcp 528 ------- 6 4.2 2.2 547 54
- 20.067973 4 2 tcp 528 ------- 6 4.2 2.2 547 54
r 20.080789 4 2 tcp 528 ------- 6 4.2 2.2 547 54
+ 20.080789 2 5 ack 576 ------- 7 2.3 5.2 1 55
- 20.080789 2 5 ack 576 ------- 7 2.3 5.2 1 55
r 20.084458 3 12 tcp 40 ------- 5 3.1 1.2 0 48
+ 20.084458 12 1 tcp 40 ------- 5 3.1 1.2 0 48
- 20.084458 12 1 tcp 40 ------- 5 3.1 1.2 0 48
r 20.085462 12 1 tcp 40 ------- 5 3.1 1.2 0 48
+ 20.085462 1 12 ack 40 ------- 5 1.2 3.1 0 56
- 20.085462 1 12 ack 40 ------- 5 1.2 3.1 0 56
r 20.086465 1 12 ack 40 ------- 5 1.2 3.1 0 56
+ 20.086465 12 3 ack 40 ------- 5 1.2 3.1 0 56
- 20.086465 12 3 ack 40 ------- 5 1.2 3.1 0 56
r 20.093861 2 5 ack 576 ------- 7 2.3 5.2 1 55
+ 20.093861 5 2 tcp 40 ------- 7 5.2 2.3 44 57
- 20.093861 5 2 tcp 40 ------- 7 5.2 2.3 44 57
+ 20.1 5 9 ack 40 ------- 1 5.1 9.1 1 58
- 20.1 5 9 ack 40 ------- 1 5.1 9.1 1 58
+ 20.1 6 10 ack 40 ------- 2 6.1 10.1 1 59
- 20.1 6 10 ack 40 ------- 2 6.1 10.1 1 59
+ 20.1 7 11 ack 40 ------- 3 7.1 11.1 1 60
- 20.1 7 11 ack 40 ------- 3 7.1 11.1 1 60
+ 20.1 8 4 tcp 40 ------- 0 8.1 4.1 44 61
- 20.1 8 4 tcp 40 ------- 0 8.1 4.1 44 61
+ 20.1 3 6 ack 40 ------- 8 3.2 6.2 1 62
- 20.1 3 6 ack 40 ------- 8 3.2 6.2 1 62
+ 20.1 3 7 ack 40 ------- 9 3.3 7.2 1 63
- 20.1 3 7 ack 40 ------- 9 3.3 7.2 1 63
+ 20.1 4 0 ack 40 ------- 11 4.3 0.2 44 64
- 20.1 4 0 ack 40 ------- 11 4.3 0.2 44 64
+ 20.1 2 4 ack 40 ------- 6 2.2 4.2 44 65
- 20.1 2 4 ack 40 ------- 6 2.2 4.2 44 65
r 20.101032 5 9 ack 40 ------- 1 5.1 9.1 1 58
r 20.101032 6 10 ack 40 ------- 2 6.1 10.1 1 59
r 20.101032 7 11 ack 40 ------- 3 7.1 11.1 1 60
r 20.101032 8 4 tcp 40 ------- 0 8.1 4.1 44 61
r 20.104074 5 2 tcp 40 ------- 7 5.2 2.3 44 57
+ 20.104074 2 5 ack 528 ------- 7 2.3 5.2 537 66
- 20.104074 2 5 ack 528 ------- 7 2.3 5.2 537 66
r 20.110032 4 0 ack 40 ------- 11 4.3 0.2 44 64
r 20.110213 3 6 ack 40 ------- 8 3.2 6.2 1 62
r 20.110213 3 7 ack 40 ------- 9 3.3 7.2 1 63
r 20.110213 2 4 ack 40 ------- 6 2.2 4.2 44 65
r 20.11689 2 5 ack 528 ------- 7 2.3 5.2 537 66
+ 20.11689 5 9 ack 576 ------- 1 5.1 9.1 1 67
- 20.11689 5 9 ack 576 ------- 1 5.1 9.1 1 67
r 20.118351 5 9 ack 576 ------- 1 5.1 9.1 1 67
+ 20.118351 9 5 tcp 40 ------- 1 9.1 5.1 44 68
- 20.118351 9 5 tcp 40 ------- 1 9.1 5.1 44 68
r 20.119383 9 5 tcp 40 ------- 1 9.1 5.1 44 68
+ 20.119383 5 9 ack 528 ------- 1 5.1 9.1 537 69
- 20.119383 5 9 ack 528 ------- 1 5.1 9.1 537 69
r 20.120806 5 9 ack 528 ------- 1 5.1 9.1 537 69
r 20.136678 12 3 ack 40 ------- 5 1.2 3.1 0 56
+ 20.136678 3 12 tcp 40 ------- 5 3.1 1.2 1 70
- 20.136678 3 12 tcp 40 ------- 5 3.1 1.2 1 70
+ 20.136678 3 12 tcp 83 ------- 5 3.1 1.2 1 71
- 20.136891 3 12 tcp 83 ------- 5 3.1 1.2 1 71
r 20.186891 3 12 tcp 40 ------- 5 3.1 1.2 1 70
+ 20.186891 12 1 tcp 40 ------- 5 3.1 1.2 1 70
- 20.186891 12 1 tcp 40 ------- 5 3.1 1.2 1 70
r 20.187334 3 12 tcp 83 ------- 5 3.1 1.2 1 71
+ 20.187334 12 1 tcp 83 ------- 5 3.1 1.2 1 71
- 20.187334 12 1 tcp 83 ------- 5 3.1 1.2 1 71
r 20.187895 12 1 tcp 40 ------- 5 3.1 1.2 1 70
r 20.188341 12 1 tcp 83 ------- 5 3.1 1.2 1 71
+ 20.188341 1 12 ack 83 ------- 4 1.1 2.1 1 72
- 20.188341 1 12 ack 83 ------- 4 1.1 2.1 1 72
r 20.189347 1 12 ack 83 ------- 4 1.1 2.1 1 72
+ 20.189347 12 2 ack 83 ------- 4 1.1 2.1 1 72
- 20.189347 12 2 ack 83 ------- 4 1.1 2.1 1 72
+ 20.2 9 5 tcp 40 ------- 1 9.1 5.1 44 73
- 20.2 9 5 tcp 40 ------- 1 9.1 5.1 44 73
+ 20.2 5 2 tcp 40 ------- 7 5.2 2.3 44 74
- 20.2 5 2 tcp 40 ------- 7 5.2 2.3 44 74
+ 20.2 1 12 ack 40 ------- 5 1.2 3.1 1 75
- 20.2 1 12 ack 40 ------- 5 1.2 3.1 1 75
r 20.201003 1 12 ack 40 ------- 5 1.2 3.1 1 75
+ 20.201003 12 3 ack 40 ------- 5 1.2 3.1 1 75
- 20.201003 12 3 ack 40 ------- 5 1.2 3.1 1 75
r 20.201032 9 5 tcp 40 ------- 1 9.1 5.1 44 73
r 20.210213 5 2 tcp 40 ------- 7 5.2 2.3 44 74
r 20.23979 12 2 ack 83 ------- 4 1.1 2.1 1 72
+ 20.23979 2 12 tcp 576 ---A--- 4 2.1 1.1 11 76
- 20.23979 2 12 tcp 576 ---A--- 4 2.1 1.1 11 76
r 20.251217 12 3 ack 40 ------- 5 1.2 3.1 1 75
r 20.292862 2 12 tcp 576 ---A--- 4 2.1 1.1 11 76
+ 20.292862 12 1 tcp 576 ---A--- 4 2.1 1.1 11 76
- 20.292862 12 1 tcp 576 ---A--- 4 2.1 1.1 11 76
r 20.293908 12 1 tcp 576 ---A--- 4 2.1 1.1 11 76
+ 20.293908 1 12 ack 40 ------- 4 1.1 2.1 44 77
- 20.293908 1 12 ack 40 ------- 4 1.1 2.1 44 77
r 20.294911 1 12 ack 40 ------- 4 1.1 2.1 44 77
+ 20.294911 12 2 ack 40 ------- 4 1.1 2.1 44 77
- 20.294911 12 2 ack 40 ------- 4 1.1 2.1 44 77
r 20.345125 12 2 ack 40 ------- 4 1.1 2.1 44 77
+ 20.345125 2 12 tcp 528 ------- 4 2.1 1.1 547 78
- 20.345125 2 12 tcp 528 ------- 4 2.1 1.1 547 78
r 20.397941 2 12 tcp 528 ------- 4 2.1 1.1 547 78
+ 20.397941 12 1 tcp 528 ------- 4 2.1 1.1 547 78
- 20.397941 12 1 tcp 528 ------- 4 2.1 1.1 547 78
r 20.398983 12 1 tcp 528 ------- 4 2.1 1.1 547 78
+ 20.398983 1 12 ack 576 ------- 5 1.2 3.1 1 79
- 20.398983 1 12 ack 576 ------- 5 1.2 3.1 1 79
+ 20.4 1 12 ack 40 ------- 4 1.1 2.1 44 80
- 20.4 1 12 ack 40 ------- 4 1.1 2.1 44 80
r 20.400029 1 12 ack 576 ------- 5 1.2 3.1 1 79
+ 20.400029 12 3 ack 576 ------- 5 1.2 3.1 1 79
- 20.400029 12 3 ack 576 ------- 5 1.2 3.1 1 79
r 20.401003 1 12 ack 40 ------- 4 1.1 2.1 44 80
+ 20.401003 12 2 ack 40 ------- 4 1.1 2.1 44 80
- 20.401003 12 2 ack 40 ------- 4 1.1 2.1 44 80
r 20.451217 12 2 ack 40 ------- 4 1.1 2.1 44 80
r 20.453101 12 3 ack 576 ------- 5 1.2 3.1 1 79
+ 20.453101 3 12 tcp 40 ------- 5 3.1 1.2 44 81
- 20.453101 3 12 tcp 40 ------- 5 3.1 1.2 44 81
r 20.503314 3 12 tcp 40 ------- 5 3.1 1.2 44 81
+ 20.503314 12 1 tcp 40 ------- 5 3.1 1.2 44 81
- 20.503314 12 1 tcp 40 ------- 5 3.1 1.2 44 81
r 20.504318 12 1 tcp 40 ------- 5 3.1 1.2 44 81
+ 20.504318 1 12 ack 528 ------- 5 1.2 3.1 537 82
- 20.504318 1 12 ack 528 ------- 5 1.2 3.1 537 82
r 20.50536 1 12 ack 528 ------- 5 1.2 3.1 537 82
+ 20.50536 12 3 ack 528 ------- 5 1.2 3.1 537 82
- 20.50536 12 3 ack 528 ------- 5 1.2 3.1 537 82
r 20.558176 12 3 ack 528 ------- 5 1.2 3.1 537 82
+ 20.558176 3 6 ack 576 ------- 8 3.2 6.2 1 83
- 20.558176 3 6 ack 576 ------- 8 3.2 6.2 1 83
+ 20.558176 3 7 ack 576 ------- 9 3.3 7.2 1 84
- 20.558176 3 7 ack 576 ------- 9 3.3 7.2 1 84
r 20.571248 3 6 ack 576 ------- 8 3.2 6.2 1 83
+ 20.571248 6 3 tcp 40 ------- 8 6.2 3.2 44 85
- 20.571248 6 3 tcp 40 ------- 8 6.2 3.2 44 85
r 20.571248 3 7 ack 576 ------- 9 3.3 7.2 1 84
+ 20.571248 7 3 tcp 40 ------- 9 7.2 3.3 44 86
- 20.571248 7 3 tcp 40 ------- 9 7.2 3.3 44 86
r 20.581461 6 3 tcp 40 ------- 8 6.2 3.2 44 85
+ 20.581461 3 6 ack 528 ------- 8 3.2 6.2 537 87
- 20.581461 3 6 ack 528 ------- 8 3.2 6.2 537 87
r 20.581461 7 3 tcp 40 ------- 9 7.2 3.3 44 86
+ 20.581461 3 7 ack 528 ------- 9 3.3 7.2 537 88
- 20.581461 3 7 ack 528 ------- 9 3.3 7.2 537 88
r 20.594277 3 6 ack 528 ------- 8 3.2 6.2 537 87
+ 20.594277 6 10 ack 576 ------- 2 6.1 10.1 1 89
- 20.594277 6 10 ack 576 ------- 2 6.1 10.1 1 89
r 20.594277 3 7 ack 528 ------- 9 3.3 7.2 537 88
+ 20.594277 7 11 ack 576 ------- 3 7.1 11.1 1 90
- 20.594277 7 11 ack 576 ---