# TESTNAME: Mcast-PBtr
# TOPOLOGY: BottleNeck
# avg-comp-page-age: 40000
# avg-page-age: 10
# avg-page-size: 1024
# avg-req-interval: 6
# client-req-size: 43
# comp-page-size: 51200
# duration: 302
# enable-log: 0
# hb-interval: 6
# max-page-age: 70
# max-page-size: 50000
# max-req-interval: 70
# min-page-age: 50
# min-page-size: 100
# min-req-interval: 50
# nam-trace-all: 1
# ns-random-seed: 188312339
# num-2nd-cache: 5
# num-comp-pages: 1
# prot: Mcast-PBtr
# scheduler-type: Calendar
# single-page: 1
# ttl: 0.1
# upd-interval: 5
# xtrace-page: webtrace-pglog
# xtrace-req: webtrace-reqlog
v 10 eval {set sim_annotation {10 6 join-group 2147483648}}
v 10 eval {set sim_annotation {10 6 join-group 2147483649}}
v 10 eval {set sim_annotation {10 1 join-group 2147483648}}
v 10 eval {set sim_annotation {10 1 join-group 2147483649}}
v 10 eval {set sim_annotation {10 2 join-group 2147483648}}
v 10 eval {set sim_annotation {10 2 join-group 2147483649}}
v 10 eval {set sim_annotation {10 3 join-group 2147483648}}
v 10 eval {set sim_annotation {10 3 join-group 2147483649}}
v 10 eval {set sim_annotation {10 4 join-group 2147483648}}
v 10 eval {set sim_annotation {10 4 join-group 2147483649}}
v 10 eval {set sim_annotation {10 5 join-group 2147483648}}
v 10 eval {set sim_annotation {10 5 join-group 2147483649}}
v 10 eval {set sim_annotation {2147483648 switch tree type}}
v 10 eval {set sim_annotation {2147483649 switch tree type}}
+ 10 0 1 tcp 40 ------- 11 0.2 1.3 0 0
- 10 0 1 tcp 40 ------- 11 0.2 1.3 0 0
