# TESTNAME: mottl-PB
# TOPOLOGY: BottleNeck
# avg-comp-page-age: 40000
# avg-page-age: 10
# avg-page-size: 1024
# avg-req-interval: 6
# client-req-size: 43
# comp-page-size: 51200
# duration: 200
# enable-log: 0
# hb-interval: 6
# max-page-age: 70
# max-page-size: 50000
# max-req-interval: 70
# min-page-age: 50
# min-page-size: 100
# min-req-interval: 50
# nam-trace-all: 1
# ns-random-seed: 188312339
# num-2nd-cache: 5
# num-comp-pages: 1
# prot: mottl-PB
# scheduler-type: Calendar
# single-page: 1
# ttl: 0.1
# upd-interval: 5
# xtrace-page: webtrace-pglog
# xtrace-req: webtrace-reqlog
+ 20 7 1 tcp 83 ------- 0 7.1 1.1 1 0
- 20 7 1 tcp 83 ------- 0 7.1 1.1 1 0
+ 20 8 2 tcp 83 ------- 2 8.1 2.1 1 1
- 20 8 2 tcp 83 ------- 2 8.1 2.1 1 1
+ 20 9 3 tcp 83 ------- 4 9.1 3.1 1 2
- 20 9 3 tcp 83 ------- 4 9.1 3.1 1 2
+ 20 10 4 tcp 83 ------- 6 10.1 4.1 1 3
- 20 10 4 tcp 83 ------- 6 10.1 4.1 1 3
+ 20 11 5 tcp 83 ------- 8 11.1 5.1 1 4
- 20 11 5 tcp 83 ------- 8 11.1 5.1 1 4
r 20.002066 7 1 tcp 83 ------- 0 7.1 1.1 1 0
+ 20.002066 1 12 tcp 83 ------- 1 1.2 6.1 1 5
- 20.002066 1 12 tcp 83 ------- 1 1.2 6.1 1 5
r 20.002066 8 2 tcp 83 ------- 2 8.1 2.1 1 1
+ 20.002066 2 12 tcp 83 ------- 3 2.2 6.2 1 6
- 20.002066 2 12 tcp 83 ------- 3 2.2 6.2 1 6
r 20.002066 9 3 tcp 83 ------- 4 9.1 3.1 1 2
+ 20.002066 3 12 tcp 83 ------- 5 3.2 6.3 1 7
- 20.002066 3 12 tcp 83 ------- 5 3.2 6.3 1 7
r 20.002066 10 4 tcp 83 ------- 6 10.1 4.1 1 3
+ 20.002066 4 12 tcp 83 ------- 7 4.2 6.4 1 8
- 20.002066 4 12 tcp 83 ------- 7 4.2 6.4 1 8
r 20.002066 11 5 tcp 83 ------- 8 11.1 5.1 1 4
+ 20.002066 5 12 tcp 83 ------- 9 5.2 6.5 1 9
- 20.002066 5 12 tcp 83 ------- 9 5.2 6.5 1 9
r 20.052509 1 12 tcp 83 ------- 1 1.2 6.1 1 5
+ 20.052509 12 6 tcp 83 ------- 1 1.2 6.1 1 5
- 20.052509 12 6 tcp 83 ------- 1 1.2 6.1 1 5
r 20.052509 2 12 tcp 83 ------- 3 2.2 6.2 1 6
+ 20.052509 12 6 tcp 83 ------- 3 2.2 6.2 1 6
r 20.052509 3 12 tcp 83 ------- 5 3.2 6.3 1 7
+ 20.052509 12 6 tcp 83 ------- 5 3.2 6.3 1 7
r 20.052509 4 12 tcp 83 ------- 7 4.2 6.4 1 8
+ 20.052509 12 6 tcp 83 ------- 7 4.2 6.4 1 8
r 20.052509 5 12 tcp 83 ------- 9 5.2 6.5 1 9
+ 20.052509 12 6 tcp 83 ------- 9 5.2 6.5 1 9
- 20.052952 12 6 tcp 83 ------- 3 2.2 6.2 1 6
- 20.053394 12 6 tcp 83 ------- 5 3.2 6.3 1 7
- 20.053837 12 6 tcp 83 ------- 7 4.2 6.4 1 8
- 20.05428 12 6 tcp 83 ------- 9 5.2 6.5 1 9
r 20.102952 12 6 tcp 83 ------- 1 1.2 6.1 1 5
+ 20.102952 6 12 tcp 83 ------- 10 6.6 0.1 1 10
- 20.102952 6 12 tcp 83 ------- 10 6.6 0.1 1 10
r 20.103394 12 6 tcp 83 ------- 3 2.2 6.2 1 6
r 20.103837 12 6 tcp 83 ------- 5 3.2 6.3 1 7
r 20.10428 12 6 tcp 83 ------- 7 4.2 6.4 1 8
r 20.104722 12 6 tcp 83 ------- 9 5.2 6.5 1 9
r 20.153394 6 12 tcp 83 ------- 10 6.6 0.1 1 10
+ 20.153394 12 1 tcp 83 ------- 10 6.6 0.1 1 10
- 20.153394 12 1 tcp 83 ------- 10 6.6 0.1 1 10
r 20.203837 12 1 tcp 83 ------- 10 6.6 0.1 1 10
+ 20.203837 1 0 tcp 83 ------- 10 6.6 0.1 1 10
- 20.203837 1 0 tcp 83 ------- 10 6.6 0.1 1 10
r 20.30428 1 0 tcp 83 ------- 10 6.6 0.1 1 10
+ 20.30428 0 1 tcp 1064 ------- 10 0.1 6.6 1 11
- 20.30428 0 1 tcp 1064 ------- 10 0.1 6.6 1 11
r 20.409954 0 1 tcp 1064 ------- 10 0.1 6.6 1 11
+ 20.409954 1 12 tcp 1064 ------- 10 0.1 6.6 1 11
- 20.409954 1 12 tcp 1064 ------- 10 0.1 6.6 1 11
r 20.465629 1 12 tcp 1064 ------- 10 0.1 6.6 1 11
+ 20.465629 12 6 tcp 1064 ------- 10 0.1 6.6 1 11
- 20.465629 12 6 tcp 1064 ------- 10 0.1 6.6 1 11
r 20.521304 12 6 tcp 1064 ------- 10 0.1 6.6 1 11
+ 20.521304 6 12 tcp 1064 ------- 1 6.1 1.2 1 12
- 20.521304 6 12 tcp 1064 ------- 1 6.1 1.2 1 12
+ 20.521304 6 12 tcp 1064 ------- 3 6.2 2.2 1 13
+ 20.521304 6 12 tcp 1064 ------- 5 6.3 3.2 1 14
+ 20.521304 6 12 tcp 1064 ------- 7 6.4 4.2 1 15
+ 20.521304 6 12 tcp 1064 ------- 9 6.5 5.2 1 16
- 20.526978 6 12 tcp 1064 ------- 3 6.2 2.2 1 13
- 20.532653 6 12 tcp 1064 ------- 5 6.3 3.2 1 14
- 20.538328 6 12 tcp 1064 ------- 7 6.4 4.2 1 15
- 20.544002 6 12 tcp 1064 ------- 9 6.5 5.2 1 16
r 20.576978 6 12 tcp 1064 ------- 1 6.1 1.2 1 12
+ 20.576978 12 1 tcp 1064 ------- 1 6.1 1.2 1 12
- 20.576978 12 1 tcp 1064 ------- 1 6.1 1.2 1 12
r 20.582653 6 12 tcp 1064 ------- 3 6.2 2.2 1 13
+ 20.582653 12 2 tcp 1064 ------- 3 6.2 2.2 1 13
- 20.582653 12 2 tcp 1064 ------- 3 6.2 2.2 1 13
r 20.588328 6 12 tcp 1064 ------- 5 6.3 3.2 1 14
+ 20.588328 12 3 tcp 1064 ------- 5 6.3 3.2 1 14
- 20.588328 12 3 tcp 1064 ------- 5 6.3 3.2 1 14
r 20.594002 6 12 tcp 1064 ------- 7 6.4 4.2 1 15
+ 20.594002 12 4 tcp 1064 ------- 7 6.4 4.2 1 15
- 20.594002 12 4 tcp 1064 ------- 7 6.4 4.2 1 15
r 20.599677 6 12 tcp 1064 ------- 9 6.5 5.2 1 16
+ 20.599677 12 5 tcp 1064 ------- 9 6.5 5.2 1 16
- 20.599677 12 5 tcp 1064 ------- 9 6.5 5.2 1 16
r 20.632653 12 1 tcp 1064 ------- 1 6.1 1.2 1 12
+ 20.632653 1 7 tcp 1064 ------- 0 1.1 7.1 1 17
- 20.632653 1 7 tcp 1064 ------- 0 1.1 7.1 1 17
r 20.635504 1 7 tcp 1064 ------- 0 1.1 7.1 1 17
+ 20.635504 7 1 tcp 83 ------- 0 7.1 1.1 2 18
- 20.635504 7 1 tcp 83 ------- 0 7.1 1.1 2 18
r 20.637571 7 1 tcp 83 ------- 0 7.1 1.1 2 18
+ 20.637571 1 7 tcp 1064 ------- 0 1.1 7.1 2 19
- 20.637571 1 7 tcp 1064 ------- 0 1.1 7.1 2 19
r 20.638328 12 2 tcp 1064 ------- 3 6.2 2.2 1 13
+ 20.638328 2 8 tcp 1064 ------- 2 2.1 8.1 1 20
- 20.638328 2 8 tcp 1064 ------- 2 2.1 8.1 1 20
r 20.640422 1 7 tcp 1064 ------- 0 1.1 7.1 2 19
r 20.641179 2 8 tcp 1064 ------- 2 2.1 8.1 1 20
+ 20.641179 8 2 tcp 83 ------- 2 8.1 2.1 2 21
- 20.641179 8 2 tcp 83 ------- 2 8.1 2.1 2 21
r 20.643245 8 2 tcp 83 ------- 2 8.1 2.1 2 21
+ 20.643245 2 8 tcp 1064 ------- 2 2.1 8.1 2 22
- 20.643245 2 8 tcp 1064 ------- 2 2.1 8.1 2 22
r 20.644002 12 3 tcp 1064 ------- 5 6.3 3.2 1 14
+ 20.644002 3 9 tcp 1064 ------- 4 3.1 9.1 1 23
- 20.644002 3 9 tcp 1064 ------- 4 3.1 9.1 1 23
r 20.646097 2 8 tcp 1064 ------- 2 2.1 8.1 2 22
r 20.646854 3 9 tcp 1064 ------- 4 3.1 9.1 1 23
+ 20.646854 9 3 tcp 83 ------- 4 9.1 3.1 2 24
- 20.646854 9 3 tcp 83 ------- 4 9.1 3.1 2 24
r 20.64892 9 3 tcp 83 ------- 4 9.1 3.1 2 24
+ 20.64892 3 9 tcp 1064 ------- 4 3.1 9.1 2 25
- 20.64892 3 9 tcp 1064 ------- 4 3.1 9.1 2 25
r 20.649677 12 4 tcp 1064 ------- 7 6.4 4.2 1 15
+ 20.649677 4 10 tcp 1064 ------- 6 4.1 10.1 1 26
- 20.649677 4 10 tcp 1064 ------- 6 4.1 10.1 1 26
r 20.651771 3 9 tcp 1064 ------- 4 3.1 9.1 2 25
r 20.652528 4 10 tcp 1064 ------- 6 4.1 10.1 1 26
+ 20.652528 10 4 tcp 83 ------- 6 10.1 4.1 2 27
- 20.652528 10 4 tcp 83 ------- 6 10.1 4.1 2 27
r 20.654595 10 4 tcp 83 ------- 6 10.1 4.1 2 27
+ 20.654595 4 10 tcp 1064 ------- 6 4.1 10.1 2 28
- 20.654595 4 10 tcp 1064 ------- 6 4.1 10.1 2 28
r 20.655352 12 5 tcp 1064 ------- 9 6.5 5.2 1 16
+ 20.655352 5 11 tcp 1064 ------- 8 5.1 11.1 1 29
- 20.655352 5 11 tcp 1064 ------- 8 5.1 11.1 1 29
r 20.657446 4 10 tcp 1064 ------- 6 4.1 10.1 2 28
r 20.658203 5 11 tcp 1064 ------- 8 5.1 11.1 1 29
+ 20.658203 11 5 tcp 83 ------- 8 11.1 5.1 2 30
- 20.658203 11 5 tcp 83 ------- 8 11.1 5.1 2 30
r 20.660269 11 5 tcp 83 ------- 8 11.1 5.1 2 30
+ 20.660269 5 11 tcp 1064 ------- 8 5.1 11.1 2 31
- 20.660269 5 11 tcp 1064 ------- 8 5.1 11.1 2 31
r 20.663121 5 11 tcp 1064 ------- 8 5.1 11.1 2 31
v 20.790064080000001 eval {set sim_annotation {S 0 INV _o435:0}}
v 23.215554350000001 eval {set sim_annotation {S 0 INV _o435:0}}
v 29.11838479 eval {set sim_annotation {S 0 INV _o435:0}}
+ 31.291471 7 1 tcp 83 ------- 0 7.1 1.1 3 32
- 31.291471 7 1 tcp 83 ------- 0 7.1 1.1 3 32
r 31.293537 7 1 tcp 83 ------- 0 7.1 1.1 3 32
+ 31.293537 1 12 tcp 90 ------- 1 1.2 6.1 2 33
- 31.293537 1 12 tcp 90 ------- 1 1.2 6.1 2 33
r 31.344017 1 12 tcp 90 ------- 1 1.2 6.1 2 33
+ 31.344017 12 6 tcp 90 ------- 1 1.2 6.1 2 33
- 31.344017 12 6 tcp 90 ------- 1 1.2 6.1 2 33
r 31.394497 12 6 tcp 90 ------- 1 1.2 6.1 2 33
+ 31.394497 6 12 tcp 90 ------- 10 6.6 0.1 2 34
- 31.394497 6 12 tcp 90 ------- 10 6.6 0.1 2 34
r 31.444977 6 12 tcp 90 ------- 10 6.6 0.1 2 34
+ 31.444977 12 1 tcp 90 ------- 10 6.6 0.1 2 34
- 31.444977 12 1 tcp 90 ------- 10 6.6 0.1 2 34
r 31.495457 12 1 tcp 90 ------- 10 6.6 0.1 2 34
+ 31.495457 1 0 tcp 90 ------- 10 6.6 0.1 2 34
- 31.495457 1 0 tcp 90 ------- 10 6.6 0.1 2 34
r 31.595937 1 0 tcp 90 ------- 10 6.6 0.1 2 34
+ 31.595937 0 1 tcp 1064 ------- 10 0.1 6.6 2 35
- 31.595937 0 1 tcp 1064 ------- 10 0.1 6.6 2 35
r 31.701612 0 1 tcp 1064 ------- 10 0.1 6.6 2 35
+ 31.701612 1 12 tcp 1064 ------- 10 0.1 6.6 2 35
- 31.701612 1 12 tcp 1064 ------- 10 0.1 6.6 2 35
r 31.757286 1 12 tcp 1064 ------- 10 0.1 6.6 2 35
+ 31.757286 12 6 tcp 1064 ------- 10 0.1 6.6 2 35
- 31.757286 12 6 tcp 1064 ------- 10 0.1 6.6 2 35
r 31.812961 12 6 tcp 1064 ------- 10 0.1 6.6 2 35
+ 31.812961 6 12 tcp 1064 ------- 1 6.1 1.2 2 36
- 31.812961 6 12 tcp 1064 ------- 1 6.1 1.2 2 36
r 31.868636 6 12 tcp 1064 ------- 1 6.1 1.2 2 36
+ 31.868636 12 1 tcp 1064 ------- 1 6.1 1.2 2 36
- 31.868636 12 1 tcp 1064 ------- 1 6.1 1.2 2 36
r 31.92431 12 1 tcp 1064 ------- 1 6.1 1.2 2 36
+ 31.92431 1 7 tcp 1064 ------- 0 1.1 7.1 3 37
- 31.92431 1 7 tcp 1064 ------- 0 1.1 7.1 3 37
r 31.927162 1 7 tcp 1064 ------- 0 1.1 7.1 3 37
+ 31.927162 7 1 tcp 83 ------- 0 7.1 1.1 4 38
- 31.927162 7 1 tcp 83 ------- 0 7.1 1.1 4 38
r 31.929228 7 1 tcp 83 ------- 0 7.1 1.1 4 38
+ 31.929228 1 7 tcp 1064 ------- 0 1.1 7.1 4 39
- 31.929228 1 7 tcp 1064 ------- 0 1.1 7.1 4 39
r 31.932079 1 7 tcp 1064 ------- 0 1.1 7.1 4 39
+ 32.455294 8 2 tcp 83 ------- 2 8.1 2.1 3 40
- 32.455294 8 2 tcp 83 ------- 2 8.1 2.1 3 40
r 32.45736 8 2 tcp 83 ------- 2 8.1 2.1 3 40
+ 32.45736 2 12 tcp 90 ------- 3 2.2 6.2 2 41
- 32.45736 2 12 tcp 90 ------- 3 2.2 6.2 2 41
r 32.50784 2 12 tcp 90 ------- 3 2.2 6.2 2 41
+ 32.50784 12 6 tcp 90 ------- 3 2.2 6.2 2 41
- 32.50784 12 6 tcp 90 ------- 3 2.2 6.2 2 41
r 32.55832 12 6 tcp 90 ------- 3 2.2 6.2 2 41
+ 32.55832 6 12 tcp 1064 ------- 3 6.2 2.2 2 42
- 32.55832 6 12 tcp 1064 ------- 3 6.2 2.2 2 42
r 32.613995 6 12 tcp 1064 ------- 3 6.2 2.2 2 42
+ 32.613995 12 2 tcp 1064 ------- 3 6.2 2.2 2 42
- 32.613995 12 2 tcp 1064 ------- 3 6.2 2.2 2 42
r 32.66967 12 2 tcp 1064 ------- 3 6.2 2.2 2 42
+ 32.66967 2 8 tcp 1064 ------- 2 2.1 8.1 3 43
- 32.66967 2 8 tcp 1064 ------- 2 2.1 8.1 3 43
r 32.672521 2 8 tcp 1064 ------- 2 2.1 8.1 3 43
+ 32.672521 8 2 tcp 83 ------- 2 8.1 2.1 4 44
- 32.672521 8 2 tcp 83 ------- 2 8.1 2.1 4 44
r 32.674587 8 2 tcp 83 ------- 2 8.1 2.1 4 44
+ 32.674587 2 8 tcp 1064 ------- 2 2.1 8.1 4 45
- 32.674587 2 8 tcp 1064 ------- 2 2.1 8.1 4 45
r 32.677439 2 8 tcp 1064 ------- 2 2.1 8.1 4 45
+ 33.473326 11 5 tcp 83 ------- 8 11.1 5.1 3 46
- 33.473326 11 5 tcp 83 ------- 8 11.1 5.1 3 46
r 33.475392 11 5 tcp 83 ------- 8 11.1 5.1 3 46
+ 33.475392 5 12 tcp 90 ------- 9 5.2 6.5 2 47
- 33.475392 5 12 tcp 90 ------- 9 5.2 6.5 2 47
r 33.525872 5 12 tcp 90 ------- 9 5.2 6.5 2 47
+ 33.525872 12 6 tcp 90 ------- 9 5.2 6.5 2 47
- 33.525872 12 6 tcp 90 ------- 9 5.2 6.5 2 47
r 33.576352 12 6 tcp 90 ------- 9 5.2 6.5 2 47
+ 33.576352 6 12 tcp 1064 ------- 9 6.5 5.2 2 48
- 33.576352 6 12 tcp 1064 ------- 9 6.5 5.2 2 48
r 33.632027 6 12 tcp 1064 ------- 9 6.5 5.2 2 48
+ 33.632027 12 5 tcp 1064 ------- 9 6.5 5.2 2 48
- 33.632027 12 5 tcp 1064 ------- 9 6.5 5.2 2 48
r 33.687702 12 5 tcp 1064 ------- 9 6.5 5.2 2 48
+ 33.687702 5 11 tcp 1064 ------- 8 5.1 11.1 3 49
- 33.687702 5 11 tcp 1064 ------- 8 5.1 11.1 3 49
r 33.690553 5 11 tcp 1064 ------- 8 5.1 11.1 3 49
+ 33.690553 11 5 tcp 83 ------- 8 11.1 5.1 4 50
- 33.690553 11 5 tcp 83 ------- 8 11.1 5.1 4 50
r 33.692619 11 5 tcp 83 ------- 8 11.1 5.1 4 50
+ 33.692619 5 11 tcp 1064 ------- 8 5.1 11.1 4 51
- 33.692619 5 11 tcp 1064 ------- 8 5.1 11.1 4 51
r 33.695471 5 11 tcp 1064 ------- 8 5.1 11.1 4 51
+ 34.541698 9 3 tcp 83 ------- 4 9.1 3.1 3 52
- 34.541698 9 3 tcp 83 ------- 4 9.1 3.1 3 52
r 34.543764 9 3 tcp 83 ------- 4 9.1 3.1 3 52
+ 34.543764 3 12 tcp 90 ------- 5 3.2 6.3 2 53
- 34.543764 3 12 tcp 90 ------- 5 3.2 6.3 2 53
r 34.594244 3 12 tcp 90 ------- 5 3.2 6.3 2 53
+ 34.594244 12 6 tcp 90 ------- 5 3.2 6.3 2 53
- 34.594244 12 6 tcp 90 ------- 5 3.2 6.3 2 53
r 34.644724 12 6 tcp 90 ------- 5 3.2 6.3 2 53
+ 34.644724 6 12 tcp 1064 ------- 5 6.3 3.2 2 54
- 34.644724 6 12 tcp 1064 ------- 5 6.3 3.2 2 54
r 34.700399 6 12 tcp 1064 ------- 5 6.3 3.2 2 54
+ 34.700399 12 3 tcp 1064 ------- 5 6.3 3.2 2 54
- 34.700399 12 3 tcp 1064 ------- 5 6.3 3.2 2 54
r 34.756074 12 3 tcp 1064 ------- 5 6.3 3.2 2 54
+ 34.756074 3 9 tcp 1064 ------- 4 3.1 9.1 3 55
- 34.756074 3 9 tcp 1064 ------- 4 3.1 9.1 3 55
r 34.758925 3 9 tcp 1064 ------- 4 3.1 9.1 3 55
+ 34.758925 9 3 tcp 83 ------- 4 9.1 3.1 4 56
- 34.758925 9 3 tcp 83 ------- 4 9.1 3.1 4 56
r 34.760991 9 3 tcp 83 ------- 4 9.1 3.1 4 56
+ 34.760991 3 9 tcp 1064 ------- 4 3.1 9.1 4 57
- 34.760991 3 9 tcp 1064 ------- 4 3.1 9.1 4 57
r 34.763843 3 9 tcp 1064 ------- 4 3.1 9.1 4 57
+ 35.818857 8 2 tcp 83 ------- 2 8.1 2.1 5 58
- 35.818857 8 2 tcp 83 ------- 2 8.1 2.1 5 58
r 35.820923 8 2 tcp 83 ------- 2 8.1 2.1 5 58
+ 35.820923 2 8 tcp 1064 ------- 2 2.1 8.1 5 59
- 35.820923 2 8 tcp 1064 ------- 2 2.1 8.1 5 59
r 35.823775 2 8 tcp 1064 ------- 2 2.1 8.1 5 59
+ 35.823775 8 2 tcp 83 ------- 2 8.1 2.1 6 60
- 35.823775 8 2 tcp 83 ------- 2 8.1 2.1 6 60
r 35.825841 8 2 tcp 83 ------- 2 8.1 2.1 6 60
+ 35.825841 2 8 tcp 1064 ------- 2 2.1 8.1 6 61
- 35.825841 2 8 tcp 1064 ------- 2 2.1 8.1 6 61
r 35.828692 2 8 tcp 1064 ------- 2 2.1 8.1 6 61
+ 39.594716 8 2 tcp 83 ------- 2 8.1 2.1 7 62
- 39.594716 8 2 tcp 83 ------- 2 8.1 2.1 7 62
r 39.596782 8 2 tcp 83 ------- 2 8.1 2.1 7 62
+ 39.596782 2 8 tcp 1064 ------- 2 2.1 8.1 7 63
- 39.596782 2 8 tcp 1064 ------- 2 2.1 8.1 7 63
r 39.599634 2 8 tcp 1064 ------- 2 2.1 8.1 7 63
+ 39.599634 8 2 tcp 83 ------- 2 8.1 2.1 8 64
- 39.599634 8 2 tcp 83 ------- 2 8.1 2.1 8 64
r 39.6017 8 2 tcp 83 ------- 2 8.1 2.1 8 64
+ 39.6017 2 8 tcp 1064 ------- 2 2.1 8.1 8 65
- 39.6017 2 8 tcp 1064 ------- 2 2.1 8.1 8 65
r 39.604551 2 8 tcp 1064 ------- 2 2.1 8.1 8 65
+ 42.039988 8 2 tcp 83 ------- 2 8.1 2.1 9 66
- 42.039988 8 2 tcp 83 ------- 2 8.1 2.1 9 66
r 42.042054 8 2 tcp 83 ------- 2 8.1 2.1 9 66
+ 42.042054 2 8 tcp 1064 ------- 2 2.1 8.1 9 67
- 42.042054 2 8 tcp 1064 ------- 2 2.1 8.1 9 67
r 42.044906 2 8 tcp 1064 ------- 2 2.1 8.1 9 67
+ 42.044906 8 2 tcp 83 ------- 2 8.1 2.1 10 68
- 42.044906 8 2 tcp 83 ------- 2 8.1 2.1 10 68
r 42.046972 8 2 tcp 83 ------- 2 8.1 2.1 10 68
+ 42.046972 2 8 tcp 1064 ------- 2 2.1 8.1 10 69
- 42.046972 2 8 tcp 1064 ------- 2 2.1 8.1 10 69
r 42.049823 2 8 tcp 1064 ------- 2 2.1 8.1 10 69
+ 42.246471 7 1 tcp 83 ------- 0 7.1 1.1 5 70
- 42.246471 7 1 tcp 83 ------- 0 7.1 1.1 5 70
r 42.248537 7 1 tcp 83 ------- 0 7.1 1.1 5 70
+ 42.248537 1 7 tcp 1064 ------- 0 1.1 7.1 5 71
- 42.248537 1 7 tcp 1064 ------- 0 1.1 7.1 5 71
r 42.251388 1 7 tcp 1064 ------- 0 1.1 7.1 5 71
+ 42.251388 7 1 tcp 83 ------- 0 7.1 1.1 6 72
- 42.251388 7 1 tcp 83 ------- 0 7.1 1.1 6 72
r 42.253455 7 1 tcp 83 ------- 0 7.1 1.1 6 72
+ 42.253455 1 7 tcp 1064 ------- 0 1.1 7.1 6 73
- 42.253455 1 7 tcp 1064 ------- 0 1.1 7.1 6 73
r 42.256306 1 7 tcp 1064 ------- 0 1.1 7.1 6 73
+ 42.952626 9 3 tcp 83 ------- 4 9.1 3.1 5 74
- 42.952626 9 3 tcp 83 ------- 4 9.1 3.1 5 74
r 42.954692 9 3 tcp 83 ------- 4 9.1 3.1 5 74
+ 42.954692 3 9 tcp 1064 ------- 4 3.1 9.1 5 75
- 42.954692 3 9 tcp 1064 ------- 4 3.1 9.1 5 75
r 42.957544 3 9 tcp 1064 ------- 4 3.1 9.1 5 75
+ 42.957544 9 3 tcp 83 ------- 4 9.1 3.1 6 76
- 42.957544 9 3 tcp 83 ------- 4 9.1 3.1 6 76
r 42.95961 9 3 tcp 83 ------- 4 9.1 3.1 6 76
+ 42.95961 3 9 tcp 1064 ------- 4 3.1 9.1 6 77
- 42.95961 3 9 tcp 1064 ------- 4 3.1 9.1 6 77
r 42.962461 3 9 tcp 1064 ------- 4 3.1 9.1 6 77
+ 44.425318 9 3 tcp 83 ------- 4 9.1 3.1 7 78
- 44.425318 9 3 tcp 83 ------- 4 9.1 3.1 7 78
r 44.427384 9 3 tcp 83 ------- 4 9.1 3.1 7 78
+ 44.427384 3 9 tcp 1064 ------- 4 3.1 9.1 7 79
- 44.427384 3 9 tcp 1064 ------- 4 3.1 9.1 7 79
r 44.430236 3 9 tcp 1064 ------- 4 3.1 9.1 7 79
+ 44.430236 9 3 tcp 83 ------- 4 9.1 3.1 8 80
- 44.430236 9 3 tcp 83 ------- 4 9.1 3.1 8 80
r 44.432302 9 3 tcp 83 ------- 4 9.1 3.1 8 80
+ 44.432302 3 9 tcp 1064 ------- 4 3.1 9.1 8 81
- 44.432302 3 9 tcp 1064 ------- 4 3.1 9.1 8 81
r 44.435153 3 9 tcp 1064 ------- 4 3.1 9.1 8 81
+ 46.318036 9 3 tcp 83 ------- 4 9.1 3.1 9 82
- 46.318036 9 3 tcp 83 ------- 4 9.1 3.1 9 82
r 46.320102 9 3 tcp 83 ------- 4 9.1 3.1 9 82
+ 46.320102 3 9 tcp 1064 ------- 4 3.1 9.1 9 83
- 46.320102 3 9 tcp 1064 ------- 4 3.1 9.1 9 83
r 46.322954 3 9 tcp 1064 ------- 4 3.1 9.1 9 83
+ 46.322954 9 3 tcp 83 ------- 4 9.1 3.1 10 84
- 46.322954 9 3 tcp 83 ------- 4 9.1 3.1 10 84
r 46.32502 9 3 tcp 83 ------- 4 9.1 3.1 10 84
+ 46.32502 3 9 tcp 1064 ------- 4 3.1 9.1 10 85
- 46.32502 3 9 tcp 1064 ------- 4 3.1 9.1 10 85
r 46.327871 3 9 tcp 1064 ------- 4 3.1 9.1 10 85
+ 47.470562 9 3 tcp 83 ------- 4 9.1 3.1 11 86
- 47.470562 9 3 tcp 83 ------- 4 9.1 3.1 11 86
r 47.472628 9 3 tcp 83 ------- 4 9.1 3.1 11 86
+ 47.472628 3 9 tcp 1064 ------- 4 3.1 9.1 11 87
- 47.472628 3 9 tcp 1064 ------- 4 3.1 9.1 11 87
r 47.47548 3 9 tcp 1064 ------- 4 3.1 9.1 11 87
+ 47.47548 9 3 tcp 83 ------- 4 9.1 3.1 12 88
- 47.47548 9 3 tcp 83 ------- 4 9.1 3.1 12 88
r 47.477546 9 3 tcp 83 ------- 4 9.1 3.1 12 88
+ 47.477546 3 9 tcp 1064 ------- 4 3.1 9.1 12 89
- 47.477546 3 9 tcp 1064 ------- 4 3.1 9.1 12 89
r 47.480397 3 9 tcp 1064 ------- 4 3.1 9.1 12 89
+ 47.684901 8 2 tcp 83 ------- 2 8.1 2.1 11 90
- 47.684901 8 2 tcp 83 ------- 2 8.1 2.1 11 90
r 47.686967 8 2 tcp 83 ------- 2 8.1 2.1 11 90
+ 47.686967 2 8 tcp 1064 ------- 2 2.1 8.1 11 91
- 47.686967 2 8 tcp 1064 ------- 2 2.1 8.1 11 91
r 47.689819 2 8 tcp 1064 ------- 2 2.1 8.1 11 91
+ 47.689819 8 2 tcp 83 ------- 2 8.1 2.1 12 92
- 47.689819 8 2 tcp 83 ------- 2 8.1 2.1 12 92
r 47.691885 8 2 tcp 83 ------- 2 8.1 2.1 12 92
+ 47.691885 2 8 tcp 1064 ------- 2 2.1 8.1 12 93
- 47.691885 2 8 tcp 1064 ------- 2 2.1 8.1 12 93
r 47.694736 2 8 tcp 1064 ------- 2 2.1 8.1 12 93
+ 48.837533 9 3 tcp 83 ------- 4 9.1 3.1 13 94
- 48.837533 9 3 tcp 83 ------- 4 9.1 3.1 13 94
r 48.839599 9 3 tcp 83 ------- 4 9.1 3.1 13 94
+ 48.839599 3 9 tcp 1064 ------- 4 3.1 9.1 13 95
- 48.839599 3 9 tcp 1064 ------- 4 3.1 9.1 13 95
r 48.842451 3 9 tcp 1064 ------- 4 3.1 9.1 13 95
+ 48.842451 9 3 tcp 83 ------- 4 9.1 3.1 14 96
- 48.842451 9 3 tcp 83 ------- 4 9.1 3.1 14 96
r 48.844517 9 3 tcp 83 ------- 4 9.1 3.1 14 96
+ 48.844517 3 9 tcp 1064 ------- 4 3.1 9.1 14 97
- 48.844517 3 9 tcp 1064 ------- 4 3.1 9.1 14 97
r 48.847368 3 9 tcp 1064 ------- 4 3.1 9.1 14 97
+ 50.091307 7 1 tcp 83 ------- 0 7.1 1.1 7 98
- 50.091307 7 1 tcp 83 ------- 0 7.1 1.1 7 98
r 50.093373 7 1 tcp 83 ------- 0 7.1 1.1 7 98
+ 50.093373 1 7 tcp 1064 ------- 0 1.1 7.1 7 99
- 50.093373 1 7 tcp 1064 ------- 0 1.1 7.1 7 99
r 50.096224 1 7 tcp 1064 ------- 0 1.1 7.1 7 99
+ 50.096224 7 1 tcp 83 ------- 0 7.1 1.1 8 100
- 50.096224 7 1 tcp 83 ------- 0 7.1 1.1 8 100
r 50.098291 7 1 tcp 83 ------- 0 7.1 1.1 8 100
+ 50.098291 1 7 tcp 1064 ------- 0 1.1 7.1 8 101
- 50.098291 1 7 tcp 1064 ------- 0 1.1 7.1 8 101
r 50.101142 1 7 tcp 1064 ------- 0 1.1 7.1 8 101
+ 52.210855 9 3 tcp 83 ------- 4 9.1 3.1 15 102
- 52.210855 9 3 tcp 83 ------- 4 9.1 3.1 15 102
r 52.212921 9 3 tcp 83 ------- 4 9.1 3.1 15 102
+ 52.212921 3 9 tcp 1064 ------- 4 3.1 9.1 15 103
- 52.212921 3 9 tcp 1064 ------- 4 3.1 9.1 15 103
r 52.215773 3 9 tcp 1064 ------- 4 3.1 9.1 15 103
+ 52.215773 9 3 tcp 83 ------- 4 9.1 3.1 16 104
- 52.215773 9 3 tcp 83 ------- 4 9.1 3.1 16 104
r 52.217839 9 3 tcp 83 ------- 4 9.1 3.1 16 104
+ 52.217839 3 9 tcp 1064 ------- 4 3.1 9.1 16 105
- 52.217839 3 9 tcp 1064 ------- 4 3.1 9.1 16 105
r 52.22069 3 9 tcp 1064 ------- 4 3.1 9.1 16 105
+ 52.327628 7 1 tcp 83 ------- 0 7.1 1.1 9 106
- 52.327628 7 1 tcp 83 ------- 0 7.1 1.1 9 106
r 52.329694 7 1 tcp 83 ------- 0 7.1 1.1 9 106
+ 52.329694 1 7 tcp 1064 ------- 0 1.1 7.1 9 107
- 52.329694 1 7 tcp 1064 ------- 0 1.1 7.1 9 107
r 52.332545 1 7 tcp 1064 ------- 0 1.1 7.1 9 107
+ 52.332545 7 1 tcp 83 ------- 0 7.1 1.1 10 108
- 52.332545 7 1 tcp 83 ------- 0 7.1 1.1 10 108
r 52.334612 7 1 tcp 83 ------- 0 7.1 1.1 10 108
+ 52.334612 1 7 tcp 1064 ------- 0 1.1 7.1 10 109
- 52.334612 1 7 tcp 1064 ------- 0 1.1 7.1 10 109
r 52.337463 1 7 tcp 1064 ------- 0 1.1 7.1 10 109
+ 53.32416 10 4 tcp 83 ------- 6 10.1 4.1 3 110
- 53.32416 10 4 tcp 83 ------- 6 10.1 4.1 3 110
r 53.326226 10 4 tcp 83 ------- 6 10.1 4.1 3 110
+ 53.326226 4 12 tcp 90 ------- 7 4.2 6.4 2 111
- 53.326226 4 12 tcp 90 ------- 7 4.2 6.4 2 111
r 53.376706 4 12 tcp 90 ------- 7 4.2 6.4 2 111
+ 53.376706 12 6 tcp 90 ------- 7 4.2 6.4 2 111
- 53.376706 12 6 tcp 90 ------- 7 4.2 6.4 2 111
r 53.427186 12 6 tcp 90 ------- 7 4.2 6.4 2 111
+ 53.427186 6 12 tcp 1064 ------- 7 6.4 4.2 2 112
- 53.427186 6 12 tcp 1064 ------- 7 6.4 4.2 2 112
r 53.482861 6 12 tcp 1064 ------- 7 6.4 4.2 2 112
+ 53.482861 12 4 tcp 1064 ------- 7 6.4 4.2 2 112
- 53.482861 12 4 tcp 1064 ------- 7 6.4 4.2 2 112
r 53.538536 12 4 tcp 1064 ------- 7 6.4 4.2 2 112
+ 53.538536 4 10 tcp 1064 ------- 6 4.1 10.1 3 113
- 53.538536 4 10 tcp 1064 ------- 6 4.1 10.1 3 113
r 53.541387 4 10 tcp 1064 ------- 6 4.1 10.1 3 113
+ 53.541387 10 4 tcp 83 ------- 6 10.1 4.1 4 114
- 53.541387 10 4 tcp 83 ------- 6 10.1 4.1 4 114
r 53.543453 10 4 tcp 83 ------- 6 10.1 4.1 4 114
+ 53.543453 4 10 tcp 1064 ------- 6 4.1 10.1 4 115
- 53.543453 4 10 tcp 1064 ------- 6 4.1 10.1 4 115
r 53.546305 4 10 tcp 1064 ------- 6 4.1 10.1 4 115
+ 53.608256 11 5 tcp 83 ------- 8 11.1 5.1 5 116
- 53.608256 11 5 tcp 83 ------- 8 11.1 5.1 5 116
r 53.610322 11 5 tcp 83 ------- 8 11.1 5.1 5 116
+ 53.610322 5 11 tcp 1064 ------- 8 5.1 11.1 5 117
- 53.610322 5 11 tcp 1064 ------- 8 5.1 11.1 5 117
r 53.613174 5 11 tcp 1064 ------- 8 5.1 11.1 5 117
+ 53.613174 11 5 tcp 83 ------- 8 11.1 5.1 6 118
- 53.613174 11 5 tcp 83 ------- 8 11.1 5.1 6 118
r 53.61524 11 5 tcp 83 ------- 8 11.1 5.1 6 118
+ 53.61524 5 11 tcp 1064 ------- 8 5.1 11.1 6 119
- 53.61524 5 11 tcp 1064 ------- 8 5.1 11.1 6 119
r 53.618091 5 11 tcp 1064 ------- 8 5.1 11.1 6 119
+ 54.449476 10 4 tcp 83 ------- 6 10.1 4.1 5 120
- 54.449476 10 4 tcp 83 ------- 6 10.1 4.1 5 120
r 54.451542 10 4 tcp 83 ------- 6 10.1 4.1 5 120
+ 54.451542 4 10 tcp 1064 ------- 6 4.1 10.1 5 121
- 54.451542 4 10 tcp 1064 ------- 6 4.1 10.1 5 121
r 54.454394 4 10 tcp 1064 ------- 6 4.1 10.1 5 121
+ 54.454394 10 4 tcp 83 ------- 6 10.1 4.1 6 122
- 54.454394 10 4 tcp 83 ------- 6 10.1 4.1 6 122
r 54.45646 10 4 tcp 83 ------- 6 10.1 4.1 6 122
+ 54.45646 4 10 tcp 1064 ------- 6 4.1 10.1 6 123
- 54.45646 4 10 tcp 1064 ------- 6 4.1 10.1 6 123
r 54.459311 4 10 tcp 1064 ------- 6 4.1 10.1 6 123
+ 54.618395 9 3 tcp 83 ------- 4 9.1 3.1 17 124
- 54.618395 9 3 tcp 83 ------- 4 9.1 3.1 17 124
r 54.620461 9 3 tcp 83 ------- 4 9.1 3.1 17 124
+ 54.620461 3 9 tcp 1064 ------- 4 3.1 9.1 17 125
- 54.620461 3 9 tcp 1064 ------- 4 3.1 9.1 17 125
r 54.623313 3 9 tcp 1064 ------- 4 3.1 9.1 17 125
+ 54.623313 9 3 tcp 83 ------- 4 9.1 3.1 18 126
- 54.623313 9 3 tcp 83 ------- 4 9.1 3.1 18 126
r 54.625379 9 3 tcp 83 ------- 4 9.1 3.1 18 126
+ 54.625379 3 9 tcp 1064 ------- 4 3.1 9.1 18 127
- 54.625379 3 9 tcp 1064 ------- 4 3.1 9.1 18 127
r 54.62823 3 9 tcp 1064 ------- 4 3.1 9.1 18 127
+ 56.591787 9 3 tcp 83 ------- 4 9.1 3.1 19 128
- 56.591787 9 3 tcp 83 ------- 4 9.1 3.1 19 128
r 56.593853 9 3 tcp 83 ------- 4 9.1 3.1 19 128
+ 56.593853 3 9 tcp 1064 ------- 4 3.1 9.1 19 129
- 56.593853 3 9 tcp 1064 ------- 4 3.1 9.1 19 129
r 56.596705 3 9 tcp 1064 ------- 4 3.1 9.1 19 129
+ 56.596705 9 3 tcp 83 ------- 4 9.1 3.1 20 130
- 56.596705 9 3 tcp 83 ------- 4 9.1 3.1 20 130
r 56.598771 9 3 tcp 83 ------- 4 9.1 3.1 20 130
+ 56.598771 3 9 tcp 1064 ------- 4 3.1 9.1 20 131
- 56.598771 3 9 tcp 1064 ------- 4 3.1 9.1 20 131
r 56.601622 3 9 tcp 1064 ------- 4 3.1 9.1 20 131
+ 57.368325 11 5 tcp 83 ------- 8 11.1 5.1 7 132
- 57.368325 11 5 tcp 83 ------- 8 11.1 5.1 7 132
r 57.370391 11 5 tcp 83 ------- 8 11.1 5.1 7 132
+ 57.370391 5 11 tcp 1064 ------- 8 5.1 11.1 7 133
- 57.370391 5 11 tcp 1064 ------- 8 5.1 11.1 7 133
r 57.373243 5 11 tcp 1064 ------- 8 5.1 11.1 7 133
+ 57.373243 11 5 tcp 83 ------- 8 11.1 5.1 8 134
- 57.373243 11 5 tcp 83 ------- 8 11.1 5.1 8 134
r 57.375309 11 5 tcp 83 ------- 8 11.1 5.1 8 134
+ 57.375309 5 11 tcp 1064 ------- 8 5.1 11.1 8 135
- 57.375309 5 11 tcp 1064 ------- 8 5.1 11.1 8 135
r 57.37816 5 11 tcp 1064 ------- 8 5.1 11.1 8 135
+ 61.985405 10 4 tcp 83 ------- 6 10.1 4.1 7 136
- 61.985405 10 4 tcp 83 ------- 6 10.1 4.1 7 136
r 61.987471 10 4 tcp 83 ------- 6 10.1 4.1 7 136
+ 61.987471 4 10 tcp 1064 ------- 6 4.1 10.1 7 137
- 61.987471 4 10 tcp 1064 ------- 6 4.1 10.1 7 137
r 61.990323 4 10 tcp 1064 ------- 6 4.1 10.1 7 137
+ 61.990323 10 4 tcp 83 ------- 6 10.1 4.1 8 138
- 61.990323 10 4 tcp 83 ------- 6 10.1 4.1 8 138
r 61.992389 10 4 tcp 83 ------- 6 10.1 4.1 8 138
+ 61.992389 4 10 tcp 1064 ------- 6 4.1 10.1 8 139
- 61.992389 4 10 tcp 1064 ------- 6 4.1 10.1 8 139
r 61.99524 4 10 tcp 1064 ------- 6 4.1 10.1 8 139
+ 63.893306 11 5 tcp 83 ------- 8 11.1 5.1 9 140
- 63.893306 11 5 tcp 83 ------- 8 11.1 5.1 9 140
r 63.895372 11 5 tcp 83 ------- 8 11.1 5.1 9 140
+ 63.895372 5 11 tcp 1064 ------- 8 5.1 11.1 9 141
- 63.895372 5 11 tcp 1064 ------- 8 5.1 11.1 9 141
r 63.898224 5 11 tcp 1064 ------- 8 5.1 11.1 9 141
+ 63.898224 11 5 tcp 83 ------- 8 11.1 5.1 10 142
- 63.898224 11 5 tcp 83 ------- 8 11.1 5.1 10 142
r 63.90029 11 5 tcp 83 ------- 8 11.1 5.1 10 142
+ 63.90029 5 11 tcp 1064 ------- 8 5.1 11.1 10 143
- 63.90029 5 11 tcp 1064 ------- 8 5.1 11.1 10 143
r 63.903141 5 11 tcp 1064 ------- 8 5.1 11.1 10 143
+ 64.476318 11 5 tcp 83 ------- 8 11.1 5.1 11 144
- 64.476318 11 5 tcp 83 ------- 8 11.1 5.1 11 144
r 64.478384 11 5 tcp 83 ------- 8 11.1 5.1 11 144
+ 64.478384 5 11 tcp 1064 ------- 8 5.1 11.1 11 145
- 64.478384 5 11 tcp 1064 ------- 8 5.1 11.1 11 145
r 64.481236 5 11 tcp 1064 ------- 8 5.1 11.1 11 145
+ 64.481236 11 5 tcp 83 ------- 8 11.1 5.1 12 146
- 64.481236 11 5 tcp 83 ------- 8 11.1 5.1 12 146
r 64.483302 11 5 tcp 83 ------- 8 11.1 5.1 12 146
+ 64.483302 5 11 tcp 1064 ------- 8 5.1 11.1 12 147
- 64.483302 5 11 tcp 1064 ------- 8 5.1 11.1 12 147
r 64.486153 5 11 tcp 1064 ------- 8 5.1 11.1 12 147
v 66.325311720000002 eval {set sim_annotation {S 0 INV _o435:0}}
+ 68.389097 9 3 tcp 83 ------- 4 9.1 3.1 21 148
- 68.389097 9 3 tcp 83 ------- 4 9.1 3.1 21 148
r 68.391163 9 3 tcp 83 ------- 4 9.1 3.1 21 148
+ 68.391163 3 12 tcp 90 ------- 5 3.2 6.3 3 149
- 68.391163 3 12 tcp 90 ------- 5 3.2 6.3 3 149
+ 68.426028 7 1 tcp 83 ------- 0 7.1 1.1 11 150
- 68.426028 7 1 tcp 83 ------- 0 7.1 1.1 11 150
r 68.428094 7 1 tcp 83 ------- 0 7.1 1.1 11 150
+ 68.428094 1 12 tcp 90 ------- 1 1.2 6.1 3 151
- 68.428094 1 12 tcp 90 ------- 1 1.2 6.1 3 151
r 68.441643 3 12 tcp 90 ------- 5 3.2 6.3 3 149
+ 68.441643 12 6 tcp 90 ------- 5 3.2 6.3 3 149
- 68.441643 12 6 tcp 90 ------- 5 3.2 6.3 3 149
r 68.478574 1 12 tcp 90 ------- 1 1.2 6.1 3 151
+ 68.478574 12 6 tcp 90 ------- 1 1.2 6.1 3 151
- 68.478574 12 6 tcp 90 ------- 1 1.2 6.1 3 151
r 68.492123 12 6 tcp 90 ------- 5 3.2 6.3 3 149
+ 68.492123 6 12 tcp 90 ------- 10 6.6 0.1 3 152
- 68.492123 6 12 tcp 90 ------- 10 6.6 0.1 3 152
r 68.529054 12 6 tcp 90 ------- 1 1.2 6.1 3 151
r 68.542603 6 12 tcp 90 ------- 10 6.6 0.1 3 152
+ 68.542603 12 1 tcp 90 ------- 10 6.6 0.1 3 152
- 68.542603 12 1 tcp 90 ------- 10 6.6 0.1 3 152
r 68.593083 12 1 tcp 90 ------- 10 6.6 0.1 3 152
+ 68.593083 1 0 tcp 90 ------- 10 6.6 0.1 3 152
- 68.593083 1 0 tcp 90 ------- 10 6.6 0.1 3 152
r 68.693563 1 0 tcp 90 ------- 10 6.6 0.1 3 152
+ 68.693563 0 1 tcp 1064 ------- 10 0.1 6.6 3 153
- 68.693563 0 1 tcp 1064 ------- 10 0.1 6.6 3 153
r 68.799238 0 1 tcp 1064 ------- 10 0.1 6.6 3 153
+ 68.799238 1 12 tcp 1064 ------- 10 0.1 6.6 3 153
- 68.799238 1 12 tcp 1064 ------- 10 0.1 6.6 3 153
r 68.854913 1 12 tcp 1064 ------- 10 0.1 6.6 3 153
+ 68.854913 12 6 tcp 1064 ------- 10 0.1 6.6 3 153
- 68.854913 12 6 tcp 1064 ------- 10 0.1 6.6 3 153
r 68.910587 12 6 tcp 1064 ------- 10 0.1 6.6 3 153
+ 68.910587 6 12 tcp 1064 ------- 5 6.3 3.2 3 154
- 68.910587 6 12 tcp 1064 ------- 5 6.3 3.2 3 154
+ 68.910587 6 12 tcp 1064 ------- 1 6.1 1.2 3 155
- 68.916262 6 12 tcp 1064 ------- 1 6.1 1.2 3 155
r 68.966262 6 12 tcp 1064 ------- 5 6.3 3.2 3 154
+ 68.966262 12 3 tcp 1064 ------- 5 6.3 3.2 3 154
- 68.966262 12 3 tcp 1064 ------- 5 6.3 3.2 3 154
r 68.971937 6 12 tcp 1064 ------- 1 6.1 1.2 3 155
+ 68.971937 12 1 tcp 1064 ------- 1 6.1 1.2 3 155
- 68.971937 12 1 tcp 1064 ------- 1 6.1 1.2 3 155
r 69.021937 12 3 tcp 1064 ------- 5 6.3 3.2 3 154
+ 69.021937 3 9 tcp 1064 ------- 4 3.1 9.1 21 156
- 69.021937 3 9 tcp 1064 ------- 4 3.1 9.1 21 156
r 69.024788 3 9 tcp 1064 ------- 4 3.1 9.1 21 156
+ 69.024788 9 3 tcp 83 ------- 4 9.1 3.1 22 157
- 69.024788 9 3 tcp 83 ------- 4 9.1 3.1 22 157
r 69.026854 9 3 tcp 83 ------- 4 9.1 3.1 22 157
+ 69.026854 3 9 tcp 1064 ------- 4 3.1 9.1 22 158
- 69.026854 3 9 tcp 1064 ------- 4 3.1 9.1 22 158
r 69.027611 12 1 tcp 1064 ------- 1 6.1 1.2 3 155
+ 69.027611 1 7 tcp 1064 ------- 0 1.1 7.1 11 159
- 69.027611 1 7 tcp 1064 ------- 0 1.1 7.1 11 159
r 69.029706 3 9 tcp 1064 ------- 4 3.1 9.1 22 158
r 69.030463 1 7 tcp 1064 ------- 0 1.1 7.1 11 159
+ 69.030463 7 1 tcp 83 ------- 0 7.1 1.1 12 160
- 69.030463 7 1 tcp 83 ------- 0 7.1 1.1 12 160
r 69.032529 7 1 tcp 83 ------- 0 7.1 1.1 12 160
+ 69.032529 1 7 tcp 1064 ------- 0 1.1 7.1 12 161
- 69.032529 1 7 tcp 1064 ------- 0 1.1 7.1 12 161
r 69.03538 1 7 tcp 1064 ------- 0 1.1 7.1 12 161
+ 69.791849 11 5 tcp 83 ------- 8 11.1 5.1 13 162
- 69.791849 11 5 tcp 83 ------- 8 11.1 5.1 13 162
r 69.793915 11 5 tcp 83 ------- 8 11.1 5.1 13 162
+ 69.793915 5 12 tcp 90 ------- 9 5.2 6.5 3 163
- 69.793915 5 12 tcp 90 ------- 9 5.2 6.5 3 163
r 69.844395 5 12 tcp 90 ------- 9 5.2 6.5 3 163
+ 69.844395 12 6 tcp 90 ------- 9 5.2 6.5 3 163
- 69.844395 12 6 tcp 90 ------- 9 5.2 6.5 3 163
r 69.894875 12 6 tcp 90 ------- 9 5.2 6.5 3 163
+ 69.894875 6 12 tcp 1064 ------- 9 6.5 5.2 3 164
- 69.894875 6 12 tcp 1064 ------- 9 6.5 5.2 3 164