# TESTNAME: mttl-PB
# TOPOLOGY: BottleNeck
# avg-comp-page-age: 40000
# avg-page-age: 10
# avg-page-size: 1024
# avg-req-interval: 6
# client-req-size: 43
# comp-page-size: 51200
# duration: 200
# enable-log: 0
# hb-interval: 6
# max-page-age: 70
# max-page-size: 50000
# max-req-interval: 70
# min-page-age: 50
# min-page-size: 100
# min-req-interval: 50
# nam-trace-all: 1
# ns-random-seed: 188312339
# num-2nd-cache: 5
# num-comp-pages: 1
# prot: mttl-PB
# scheduler-type: Calendar
# single-page: 1
# ttl: 0.1
# upd-interval: 5
# xtrace-page: webtrace-pglog
# xtrace-req: webtrace-reqlog
+ 20 7 1 tcp 83 ------- 0 7.1 1.1 1 0
- 20 7 1 tcp 83 ------- 0 7.1 1.1 1 0
+ 20 8 2 tcp 83 ------- 2 8.1 2.1 1 1
- 20 8 2 tcp 83 ------- 2 8.1 2.1 1 1
+ 20 9 3 tcp 83 ------- 4 9.1 3.1 1 2
- 20 9 3 tcp 83 ------- 4 9.1 3.1 1 2
+ 20 10 4 tcp 83 ------- 6 10.1 4.1 1 3
- 20 10 4 tcp 83 ------- 6 10.1 4.1 1 3
+ 20 11 5 tcp 83 ------- 8 11.1 5.1 1 4
- 20 11 5 tcp 83 ------- 8 11.1 5.1 1 4
r 20.002066 7 1 tcp 83 ------- 0 7.1 1.1 1 0
+ 20.002066 1 12 tcp 83 ------- 1 1.2 6.1 1 5
- 20.002066 1 12 tcp 83 ------- 1 1.2 6.1 1 5
r 20.002066 8 2 tcp 83 ------- 2 8.1 2.1 1 1
+ 20.002066 2 12 tcp 83 ------- 3 2.2 6.2 1 6
- 20.002066 2 12 tcp 83 ------- 3 2.2 6.2 1 6
r 20.002066 9 3 tcp 83 ------- 4 9.1 3.1 1 2
+ 20.002066 3 12 tcp 83 ------- 5 3.2 6.3 1 7
- 20.002066 3 12 tcp 83 ------- 5 3.2 6.3 1 7
r 20.002066 10 4 tcp 83 ------- 6 10.1 4.1 1 3
+ 20.002066 4 12 tcp 83 ------- 7 4.2 6.4 1 8
- 20.002066 4 12 tcp 83 ------- 7 4.2 6.4 1 8
r 20.002066 11 5 tcp 83 ------- 8 11.1 5.1 1 4
+ 20.002066 5 12 tcp 83 ------- 9 5.2 6.5 1 9
- 20.002066 5 12 tcp 83 ------- 9 5.2 6.5 1 9
r 20.052509 1 12 tcp 83 ------- 1 1.2 6.1 1 5
+ 20.052509 12 6 tcp 83 ------- 1 1.2 6.1 1 5
- 20.052509 12 6 tcp 83 ------- 1 1.2 6.1 1 5
r 20.052509 2 12 tcp 83 ------- 3 2.2 6.2 1 6
+ 20.052509 12 6 tcp 83 ------- 3 2.2 6.2 1 6
r 20.052509 3 12 tcp 83 ------- 5 3.2 6.3 1 7
+ 20.052509 12 6 tcp 83 ------- 5 3.2 6.3 1 7
r 20.052509 4 12 tcp 83 ------- 7 4.2 6.4 1 8
+ 20.052509 12 6 tcp 83 ------- 7 4.2 6.4 1 8
r 20.052509 5 12 tcp 83 ------- 9 5.2 6.5 1 9
+ 20.052509 12 6 tcp 83 ------- 9 5.2 6.5 1 9
- 20.052952 12 6 tcp 83 ------- 3 2.2 6.2 1 6
- 20.053394 12 6 tcp 83 ------- 5 3.2 6.3 1 7
- 20.053837 12 6 tcp 83 ------- 7 4.2 6.4 1 8
- 20.05428 12 6 tcp 83 ------- 9 5.2 6.5 1 9
r 20.102952 12 6 tcp 83 ------- 1 1.2 6.1 1 5
+ 20.102952 6 12 tcp 83 ------- 10 6.6 0.1 1 10
- 20.102952 6 12 tcp 83 ------- 10 6.6 0.1 1 10
r 20.103394 12 6 tcp 83 ------- 3 2.2 6.2 1 6
r 20.103837 12 6 tcp 83 ------- 5 3.2 6.3 1 7
r 20.10428 12 6 tcp 83 ------- 7 4.2 6.4 1 8
r 20.104722 12 6 tcp 83 ------- 9 5.2 6.5 1 9
r 20.153394 6 12 tcp 83 ------- 10 6.6 0.1 1 10
+ 20.153394 12 1 tcp 83 ------- 10 6.6 0.1 1 10
- 20.153394 12 1 tcp 83 ------- 10 6.6 0.1 1 10
r 20.203837 12 1 tcp 83 ------- 10 6.6 0.1 1 10
+ 20.203837 1 0 tcp 83 ------- 10 6.6 0.1 1 10
- 20.203837 1 0 tcp 83 ------- 10 6.6 0.1 1 10
r 20.30428 1 0 tcp 83 ------- 10 6.6 0.1 1 10
+ 20.30428 0 1 tcp 1064 ------- 10 0.1 6.6 1 11
- 20.30428 0 1 tcp 1064 ------- 10 0.1 6.6 1 11
r 20.409954 0 1 tcp 1064 ------- 10 0.1 6.6 1 11
+ 20.409954 1 12 tcp 1064 ------- 10 0.1 6.6 1 11
- 20.409954 1 12 tcp 1064 ------- 10 0.1 6.6 1 11
r 20.465629 1 12 tcp 1064 ------- 10 0.1 6.6 1 11
+ 20.465629 12 6 tcp 1064 ------- 10 0.1 6.6 1 11
- 20.465629 12 6 tcp 1064 ------- 10 0.1 6.6 1 11
r 20.521304 12 6 tcp 1064 ------- 10 0.1 6.6 1 11
+ 20.521304 6 12 tcp 1064 ------- 1 6.1 1.2 1 12
- 20.521304 6 12 tcp 1064 ------- 1 6.1 1.2 1 12
+ 20.521304 6 12 tcp 1064 ------- 3 6.2 2.2 1 13
+ 20.521304 6 12 tcp 1064 ------- 5 6.3 3.2 1 14
+ 20.521304 6 12 tcp 1064 ------- 7 6.4 4.2 1 15
+ 20.521304 6 12 tcp 1064 ------- 9 6.5 5.2 1 16
- 20.526978 6 12 tcp 1064 ------- 3 6.2 2.2 1 13
- 20.532653 6 12 tcp 1064 ------- 5 6.3 3.2 1 14
- 20.538328 6 12 tcp 1064 ------- 7 6.4 4.2 1 15
- 20.544002 6 12 tcp 1064 ------- 9 6.5 5.2 1 16
r 20.576978 6 12 tcp 1064 ------- 1 6.1 1.2 1 12
+ 20.576978 12 1 tcp 1064 ------- 1 6.1 1.2 1 12
- 20.576978 12 1 tcp 1064 ------- 1 6.1 1.2 1 12
r 20.582653 6 12 tcp 1064 ------- 3 6.2 2.2 1 13
+ 20.582653 12 2 tcp 1064 ------- 3 6.2 2.2 1 13
- 20.582653 12 2 tcp 1064 ------- 3 6.2 2.2 1 13
r 20.588328 6 12 tcp 1064 ------- 5 6.3 3.2 1 14
+ 20.588328 12 3 tcp 1064 ------- 5 6.3 3.2 1 14
- 20.588328 12 3 tcp 1064 ------- 5 6.3 3.2 1 14
r 20.594002 6 12 tcp 1064 ------- 7 6.4 4.2 1 15
+ 20.594002 12 4 tcp 1064 ------- 7 6.4 4.2 1 15
- 20.594002 12 4 tcp 1064 ------- 7 6.4 4.2 1 15
r 20.599677 6 12 tcp 1064 ------- 9 6.5 5.2 1 16
+ 20.599677 12 5 tcp 1064 ------- 9 6.5 5.2 1 16
- 20.599677 12 5 tcp 1064 ------- 9 6.5 5.2 1 16
r 20.632653 12 1 tcp 1064 ------- 1 6.1 1.2 1 12
+ 20.632653 1 7 tcp 1064 ------- 0 1.1 7.1 1 17
- 20.632653 1 7 tcp 1064 ------- 0 1.1 7.1 1 17
r 20.635504 1 7 tcp 1064 ------- 0 1.1 7.1 1 17
+ 20.635504 7 1 tcp 83 ------- 0 7.1 1.1 2 18
- 20.635504 7 1 tcp 83 ------- 0 7.1 1.1 2 18
r 20.637571 7 1 tcp 83 ------- 0 7.1 1.1 2 18
+ 20.637571 1 7 tcp 1064 ------- 0 1.1 7.1 2 19
- 20.637571 1 7 tcp 1064 ------- 0 1.1 7.1 2 19
r 20.638328 12 2 tcp 1064 ------- 3 6.2 2.2 1 13
+ 20.638328 2 8 tcp 1064 ------- 2 2.1 8.1 1 20
- 20.638328 2 8 tcp 1064 ------- 2 2.1 8.1 1 20
r 20.640422 1 7 tcp 1064 ------- 0 1.1 7.1 2 19
r 20.641179 2 8 tcp 1064 ------- 2 2.1 8.1 1 20
+ 20.641179 8 2 tcp 83 ------- 2 8.1 2.1 2 21
- 20.641179 8 2 tcp 83 ------- 2 8.1 2.1 2 21
r 20.643245 8 2 tcp 83 ------- 2 8.1 2.1 2 21
+ 20.643245 2 8 tcp 1064 ------- 2 2.1 8.1 2 22
- 20.643245 2 8 tcp 1064 ------- 2 2.1 8.1 2 22
r 20.644002 12 3 tcp 1064 ------- 5 6.3 3.2 1 14
+ 20.644002 3 9 tcp 1064 ------- 4 3.1 9.1 1 23
- 20.644002 3 9 tcp 1064 ------- 4 3.1 9.1 1 23
r 20.646097 2 8 tcp 1064 ------- 2 2.1 8.1 2 22
r 20.646854 3 9 tcp 1064 ------- 4 3.1 9.1 1 23
+ 20.646854 9 3 tcp 83 ------- 4 9.1 3.1 2 24
- 20.646854 9 3 tcp 83 ------- 4 9.1 3.1 2 24
r 20.64892 9 3 tcp 83 ------- 4 9.1 3.1 2 24
+ 20.64892 3 9 tcp 1064 ------- 4 3.1 9.1 2 25
- 20.64892 3 9 tcp 1064 ------- 4 3.1 9.1 2 25
r 20.649677 12 4 tcp 1064 ------- 7 6.4 4.2 1 15
+ 20.649677 4 10 tcp 1064 ------- 6 4.1 10.1 1 26
- 20.649677 4 10 tcp 1064 ------- 6 4.1 10.1 1 26
r 20.651771 3 9 tcp 1064 ------- 4 3.1 9.1 2 25
r 20.652528 4 10 tcp 1064 ------- 6 4.1 10.1 1 26
+ 20.652528 10 4 tcp 83 ------- 6 10.1 4.1 2 27
- 20.652528 10 4 tcp 83 ------- 6 10.1 4.1 2 27
r 20.654595 10 4 tcp 83 ------- 6 10.1 4.1 2 27
+ 20.654595 4 10 tcp 1064 ------- 6 4.1 10.1 2 28
- 20.654595 4 10 tcp 1064 ------- 6 4.1 10.1 2 28
r 20.655352 12 5 tcp 1064 ------- 9 6.5 5.2 1 16
+ 20.655352 5 11 tcp 1064 ------- 8 5.1 11.1 1 29
- 20.655352 5 11 tcp 1064 ------- 8 5.1 11.1 1 29
r 20.657446 4 10 tcp 1064 ------- 6 4.1 10.1 2 28
r 20.658203 5 11 tcp 1064 ------- 8 5.1 11.1 1 29
+ 20.658203 11 5 tcp 83 ------- 8 11.1 5.1 2 30
- 20.658203 11 5 tcp 83 ------- 8 11.1 5.1 2 30
r 20.660269 11 5 tcp 83 ------- 8 11.1 5.1 2 30
+ 20.660269 5 11 tcp 1064 ------- 8 5.1 11.1 2 31
- 20.660269 5 11 tcp 1064 ------- 8 5.1 11.1 2 31
r 20.663121 5 11 tcp 1064 ------- 8 5.1 11.1 2 31
v 20.790064080000001 eval {set sim_annotation {S 0 INV _o435:0}}
v 23.215554350000001 eval {set sim_annotation {S 0 INV _o435:0}}
v 29.11838479 eval {set sim_annotation {S 0 INV _o435:0}}
+ 31.291471 7 1 tcp 83 ------- 0 7.1 1.1 3 32
- 31.291471 7 1 tcp 83 ------- 0 7.1 1.1 3 32
r 31.293537 7 1 tcp 83 ------- 0 7.1 1.1 3 32
+ 31.293537 1 12 tcp 90 ------- 1 1.2 6.1 2 33
- 31.293537 1 12 tcp 90 ------- 1 1.2 6.1 2 33
r 31.344017 1 12 tcp 90 ------- 1 1.2 6.1 2 33
+ 31.344017 12 6 tcp 90 ------- 1 1.2 6.1 2 33
- 31.344017 12 6 tcp 90 ------- 1 1.2 6.1 2 33
r 31.394497 12 6 tcp 90 ------- 1 1.2 6.1 2 33
+ 31.394497 6 12 tcp 90 ------- 10 6.6 0.1 2 34
- 31.394497 6 12 tcp 90 ------- 10 6.6 0.1 2 34
r 31.444977 6 12 tcp 90 ------- 10 6.6 0.1 2 34
+ 31.444977 12 1 tcp 90 ------- 10 6.6 0.1 2 34
- 31.444977 12 1 tcp 90 ------- 10 6.6 0.1 2 34
r 31.495457 12 1 tcp 90 ------- 10 6.6 0.1 2 34
+ 31.495457 1 0 tcp 90 ------- 10 6.6 0.1 2 34
- 31.495457 1 0 tcp 90 ------- 10 6.6 0.1 2 34
r 31.595937 1 0 tcp 90 ------- 10 6.6 0.1 2 34
+ 31.595937 0 1 tcp 1064 ------- 10 0.1 6.6 2 35
- 31.595937 0 1 tcp 1064 ------- 10 0.1 6.6 2 35
r 31.701612 0 1 tcp 1064 ------- 10 0.1 6.6 2 35
+ 31.701612 1 12 tcp 1064 ------- 10 0.1 6.6 2 35
- 31.701612 1 12 tcp 1064 ------- 10 0.1 6.6 2 35
r 31.757286 1 12 tcp 1064 ------- 10 0.1 6.6 2 35
+ 31.757286 12 6 tcp 1064 ------- 10 0.1 6.6 2 35
- 31.757286 12 6 tcp 1064 ------- 10 0.1 6.6 2 35
r 31.812961 12 6 tcp 1064 ------- 10 0.1 6.6 2 35
+ 31.812961 6 12 tcp 1064 ------- 1 6.1 1.2 2 36
- 31.812961 6 12 tcp 1064 ------- 1 6.1 1.2 2 36
r 31.868636 6 12 tcp 1064 ------- 1 6.1 1.2 2 36
+ 31.868636 12 1 tcp 1064 ------- 1 6.1 1.2 2 36
- 31.868636 12 1 tcp 1064 ------- 1 6.1 1.2 2 36
r 31.92431 12 1 tcp 1064 ------- 1 6.1 1.2 2 36
+ 31.92431 1 7 tcp 1064 ------- 0 1.1 7.1 3 37
- 31.92431 1 7 tcp 1064 ------- 0 1.1 7.1 3 37
r 31.927162 1 7 tcp 1064 ------- 0 1.1 7.1 3 37
+ 31.927162 7 1 tcp 83 ------- 0 7.1 1.1 4 38
- 31.927162 7 1 tcp 83 ------- 0 7.1 1.1 4 38
r 31.929228 7 1 tcp 83 ------- 0 7.1 1.1 4 38
+ 31.929228 1 7 tcp 1064 ------- 0 1.1 7.1 4 39
- 31.929228 1 7 tcp 1064 ------- 0 1.1 7.1 4 39
r 31.932079 1 7 tcp 1064 ------- 0 1.1 7.1 4 39
+ 32.455294 8 2 tcp 83 ------- 2 8.1 2.1 3 40
- 32.455294 8 2 tcp 83 ------- 2 8.1 2.1 3 40
r 32.45736 8 2 tcp 83 ------- 2 8.1 2.1 3 40
+ 32.45736 2 12 tcp 90 ------- 3 2.2 6.2 2 41
- 32.45736 2 12 tcp 90 ------- 3 2.2 6.2 2 41
r 32.50784 2 12 tcp 90 ------- 3 2.2 6.2 2 41
+ 32.50784 12 6 tcp 90 ------- 3 2.2 6.2 2 41
- 32.50784 12 6 tcp 90 ------- 3 2.2 6.2 2 41
r 32.55832 12 6 tcp 90 ------- 3 2.2 6.2 2 41
+ 32.55832 6 12 tcp 90 ------- 10 6.6 0.1 3 42
- 32.55832 6 12 tcp 90 ------- 10 6.6 0.1 3 42
r 32.6088 6 12 tcp 90 ------- 10 6.6 0.1 3 42
+ 32.6088 12 1 tcp 90 ------- 10 6.6 0.1 3 42
- 32.6088 12 1 tcp 90 ------- 10 6.6 0.1 3 42
r 32.65928 12 1 tcp 90 ------- 10 6.6 0.1 3 42
+ 32.65928 1 0 tcp 90 ------- 10 6.6 0.1 3 42
- 32.65928 1 0 tcp 90 ------- 10 6.6 0.1 3 42
r 32.75976 1 0 tcp 90 ------- 10 6.6 0.1 3 42
+ 32.75976 0 1 tcp 83 ------- 10 0.1 6.6 3 43
- 32.75976 0 1 tcp 83 ------- 10 0.1 6.6 3 43
r 32.860203 0 1 tcp 83 ------- 10 0.1 6.6 3 43
+ 32.860203 1 12 tcp 83 ------- 10 0.1 6.6 3 43
- 32.860203 1 12 tcp 83 ------- 10 0.1 6.6 3 43
r 32.910646 1 12 tcp 83 ------- 10 0.1 6.6 3 43
+ 32.910646 12 6 tcp 83 ------- 10 0.1 6.6 3 43
- 32.910646 12 6 tcp 83 ------- 10 0.1 6.6 3 43
r 32.961088 12 6 tcp 83 ------- 10 0.1 6.6 3 43
+ 32.961088 6 12 tcp 1064 ------- 3 6.2 2.2 2 44
- 32.961088 6 12 tcp 1064 ------- 3 6.2 2.2 2 44
r 33.016763 6 12 tcp 1064 ------- 3 6.2 2.2 2 44
+ 33.016763 12 2 tcp 1064 ------- 3 6.2 2.2 2 44
- 33.016763 12 2 tcp 1064 ------- 3 6.2 2.2 2 44
r 33.072438 12 2 tcp 1064 ------- 3 6.2 2.2 2 44
+ 33.072438 2 8 tcp 1064 ------- 2 2.1 8.1 3 45
- 33.072438 2 8 tcp 1064 ------- 2 2.1 8.1 3 45
r 33.075289 2 8 tcp 1064 ------- 2 2.1 8.1 3 45
+ 33.075289 8 2 tcp 83 ------- 2 8.1 2.1 4 46
- 33.075289 8 2 tcp 83 ------- 2 8.1 2.1 4 46
r 33.077355 8 2 tcp 83 ------- 2 8.1 2.1 4 46
+ 33.077355 2 8 tcp 1064 ------- 2 2.1 8.1 4 47
- 33.077355 2 8 tcp 1064 ------- 2 2.1 8.1 4 47
r 33.080207 2 8 tcp 1064 ------- 2 2.1 8.1 4 47
+ 33.473326 11 5 tcp 83 ------- 8 11.1 5.1 3 48
- 33.473326 11 5 tcp 83 ------- 8 11.1 5.1 3 48
r 33.475392 11 5 tcp 83 ------- 8 11.1 5.1 3 48
+ 33.475392 5 12 tcp 90 ------- 9 5.2 6.5 2 49
- 33.475392 5 12 tcp 90 ------- 9 5.2 6.5 2 49
r 33.525872 5 12 tcp 90 ------- 9 5.2 6.5 2 49
+ 33.525872 12 6 tcp 90 ------- 9 5.2 6.5 2 49
- 33.525872 12 6 tcp 90 ------- 9 5.2 6.5 2 49
r 33.576352 12 6 tcp 90 ------- 9 5.2 6.5 2 49
+ 33.576352 6 12 tcp 90 ------- 10 6.6 0.1 4 50
- 33.576352 6 12 tcp 90 ------- 10 6.6 0.1 4 50
r 33.626832 6 12 tcp 90 ------- 10 6.6 0.1 4 50
+ 33.626832 12 1 tcp 90 ------- 10 6.6 0.1 4 50
- 33.626832 12 1 tcp 90 ------- 10 6.6 0.1 4 50
r 33.677312 12 1 tcp 90 ------- 10 6.6 0.1 4 50
+ 33.677312 1 0 tcp 90 ------- 10 6.6 0.1 4 50
- 33.677312 1 0 tcp 90 ------- 10 6.6 0.1 4 50
r 33.777792 1 0 tcp 90 ------- 10 6.6 0.1 4 50
+ 33.777792 0 1 tcp 83 ------- 10 0.1 6.6 4 51
- 33.777792 0 1 tcp 83 ------- 10 0.1 6.6 4 51
r 33.878235 0 1 tcp 83 ------- 10 0.1 6.6 4 51
+ 33.878235 1 12 tcp 83 ------- 10 0.1 6.6 4 51
- 33.878235 1 12 tcp 83 ------- 10 0.1 6.6 4 51
r 33.928678 1 12 tcp 83 ------- 10 0.1 6.6 4 51
+ 33.928678 12 6 tcp 83 ------- 10 0.1 6.6 4 51
- 33.928678 12 6 tcp 83 ------- 10 0.1 6.6 4 51
r 33.97912 12 6 tcp 83 ------- 10 0.1 6.6 4 51
+ 33.97912 6 12 tcp 1064 ------- 9 6.5 5.2 2 52
- 33.97912 6 12 tcp 1064 ------- 9 6.5 5.2 2 52
r 34.034795 6 12 tcp 1064 ------- 9 6.5 5.2 2 52
+ 34.034795 12 5 tcp 1064 ------- 9 6.5 5.2 2 52
- 34.034795 12 5 tcp 1064 ------- 9 6.5 5.2 2 52
r 34.09047 12 5 tcp 1064 ------- 9 6.5 5.2 2 52
+ 34.09047 5 11 tcp 1064 ------- 8 5.1 11.1 3 53
- 34.09047 5 11 tcp 1064 ------- 8 5.1 11.1 3 53
r 34.093321 5 11 tcp 1064 ------- 8 5.1 11.1 3 53
+ 34.093321 11 5 tcp 83 ------- 8 11.1 5.1 4 54
- 34.093321 11 5 tcp 83 ------- 8 11.1 5.1 4 54
r 34.095387 11 5 tcp 83 ------- 8 11.1 5.1 4 54
+ 34.095387 5 11 tcp 1064 ------- 8 5.1 11.1 4 55
- 34.095387 5 11 tcp 1064 ------- 8 5.1 11.1 4 55
r 34.098239 5 11 tcp 1064 ------- 8 5.1 11.1 4 55
+ 34.541698 9 3 tcp 83 ------- 4 9.1 3.1 3 56
- 34.541698 9 3 tcp 83 ------- 4 9.1 3.1 3 56
r 34.543764 9 3 tcp 83 ------- 4 9.1 3.1 3 56
+ 34.543764 3 12 tcp 90 ------- 5 3.2 6.3 2 57
- 34.543764 3 12 tcp 90 ------- 5 3.2 6.3 2 57
r 34.594244 3 12 tcp 90 ------- 5 3.2 6.3 2 57
+ 34.594244 12 6 tcp 90 ------- 5 3.2 6.3 2 57
- 34.594244 12 6 tcp 90 ------- 5 3.2 6.3 2 57
r 34.644724 12 6 tcp 90 ------- 5 3.2 6.3 2 57
+ 34.644724 6 12 tcp 90 ------- 10 6.6 0.1 5 58
- 34.644724 6 12 tcp 90 ------- 10 6.6 0.1 5 58
r 34.695204 6 12 tcp 90 ------- 10 6.6 0.1 5 58
+ 34.695204 12 1 tcp 90 ------- 10 6.6 0.1 5 58
- 34.695204 12 1 tcp 90 ------- 10 6.6 0.1 5 58
r 34.745684 12 1 tcp 90 ------- 10 6.6 0.1 5 58
+ 34.745684 1 0 tcp 90 ------- 10 6.6 0.1 5 58
- 34.745684 1 0 tcp 90 ------- 10 6.6 0.1 5 58
r 34.846164 1 0 tcp 90 ------- 10 6.6 0.1 5 58
+ 34.846164 0 1 tcp 83 ------- 10 0.1 6.6 5 59
- 34.846164 0 1 tcp 83 ------- 10 0.1 6.6 5 59
r 34.946607 0 1 tcp 83 ------- 10 0.1 6.6 5 59
+ 34.946607 1 12 tcp 83 ------- 10 0.1 6.6 5 59
- 34.946607 1 12 tcp 83 ------- 10 0.1 6.6 5 59
r 34.99705 1 12 tcp 83 ------- 10 0.1 6.6 5 59
+ 34.99705 12 6 tcp 83 ------- 10 0.1 6.6 5 59
- 34.99705 12 6 tcp 83 ------- 10 0.1 6.6 5 59
r 35.047492 12 6 tcp 83 ------- 10 0.1 6.6 5 59
+ 35.047492 6 12 tcp 1064 ------- 5 6.3 3.2 2 60
- 35.047492 6 12 tcp 1064 ------- 5 6.3 3.2 2 60
r 35.103167 6 12 tcp 1064 ------- 5 6.3 3.2 2 60
+ 35.103167 12 3 tcp 1064 ------- 5 6.3 3.2 2 60
- 35.103167 12 3 tcp 1064 ------- 5 6.3 3.2 2 60
r 35.158842 12 3 tcp 1064 ------- 5 6.3 3.2 2 60
+ 35.158842 3 9 tcp 1064 ------- 4 3.1 9.1 3 61
- 35.158842 3 9 tcp 1064 ------- 4 3.1 9.1 3 61
r 35.161693 3 9 tcp 1064 ------- 4 3.1 9.1 3 61
+ 35.161693 9 3 tcp 83 ------- 4 9.1 3.1 4 62
- 35.161693 9 3 tcp 83 ------- 4 9.1 3.1 4 62
r 35.163759 9 3 tcp 83 ------- 4 9.1 3.1 4 62
+ 35.163759 3 9 tcp 1064 ------- 4 3.1 9.1 4 63
- 35.163759 3 9 tcp 1064 ------- 4 3.1 9.1 4 63
r 35.166611 3 9 tcp 1064 ------- 4 3.1 9.1 4 63
+ 35.818857 8 2 tcp 83 ------- 2 8.1 2.1 5 64
- 35.818857 8 2 tcp 83 ------- 2 8.1 2.1 5 64
r 35.820923 8 2 tcp 83 ------- 2 8.1 2.1 5 64
+ 35.820923 2 12 tcp 90 ------- 3 2.2 6.2 3 65
- 35.820923 2 12 tcp 90 ------- 3 2.2 6.2 3 65
r 35.871403 2 12 tcp 90 ------- 3 2.2 6.2 3 65
+ 35.871403 12 6 tcp 90 ------- 3 2.2 6.2 3 65
- 35.871403 12 6 tcp 90 ------- 3 2.2 6.2 3 65
r 35.921883 12 6 tcp 90 ------- 3 2.2 6.2 3 65
+ 35.921883 6 12 tcp 90 ------- 10 6.6 0.1 6 66
- 35.921883 6 12 tcp 90 ------- 10 6.6 0.1 6 66
r 35.972363 6 12 tcp 90 ------- 10 6.6 0.1 6 66
+ 35.972363 12 1 tcp 90 ------- 10 6.6 0.1 6 66
- 35.972363 12 1 tcp 90 ------- 10 6.6 0.1 6 66
r 36.022843 12 1 tcp 90 ------- 10 6.6 0.1 6 66
+ 36.022843 1 0 tcp 90 ------- 10 6.6 0.1 6 66
- 36.022843 1 0 tcp 90 ------- 10 6.6 0.1 6 66
r 36.123323 1 0 tcp 90 ------- 10 6.6 0.1 6 66
+ 36.123323 0 1 tcp 83 ------- 10 0.1 6.6 6 67
- 36.123323 0 1 tcp 83 ------- 10 0.1 6.6 6 67
r 36.223766 0 1 tcp 83 ------- 10 0.1 6.6 6 67
+ 36.223766 1 12 tcp 83 ------- 10 0.1 6.6 6 67
- 36.223766 1 12 tcp 83 ------- 10 0.1 6.6 6 67
r 36.274209 1 12 tcp 83 ------- 10 0.1 6.6 6 67
+ 36.274209 12 6 tcp 83 ------- 10 0.1 6.6 6 67
- 36.274209 12 6 tcp 83 ------- 10 0.1 6.6 6 67
r 36.324651 12 6 tcp 83 ------- 10 0.1 6.6 6 67
+ 36.324651 6 12 tcp 83 ------- 3 6.2 2.2 3 68
- 36.324651 6 12 tcp 83 ------- 3 6.2 2.2 3 68
r 36.375094 6 12 tcp 83 ------- 3 6.2 2.2 3 68
+ 36.375094 12 2 tcp 83 ------- 3 6.2 2.2 3 68
- 36.375094 12 2 tcp 83 ------- 3 6.2 2.2 3 68
r 36.425537 12 2 tcp 83 ------- 3 6.2 2.2 3 68
+ 36.425537 2 8 tcp 1064 ------- 2 2.1 8.1 5 69
- 36.425537 2 8 tcp 1064 ------- 2 2.1 8.1 5 69
r 36.428388 2 8 tcp 1064 ------- 2 2.1 8.1 5 69
+ 36.428388 8 2 tcp 83 ------- 2 8.1 2.1 6 70
- 36.428388 8 2 tcp 83 ------- 2 8.1 2.1 6 70
r 36.430454 8 2 tcp 83 ------- 2 8.1 2.1 6 70
+ 36.430454 2 8 tcp 1064 ------- 2 2.1 8.1 6 71
- 36.430454 2 8 tcp 1064 ------- 2 2.1 8.1 6 71
r 36.433306 2 8 tcp 1064 ------- 2 2.1 8.1 6 71
+ 39.594716 8 2 tcp 83 ------- 2 8.1 2.1 7 72
- 39.594716 8 2 tcp 83 ------- 2 8.1 2.1 7 72
r 39.596782 8 2 tcp 83 ------- 2 8.1 2.1 7 72
+ 39.596782 2 12 tcp 90 ------- 3 2.2 6.2 4 73
- 39.596782 2 12 tcp 90 ------- 3 2.2 6.2 4 73
r 39.647262 2 12 tcp 90 ------- 3 2.2 6.2 4 73
+ 39.647262 12 6 tcp 90 ------- 3 2.2 6.2 4 73
- 39.647262 12 6 tcp 90 ------- 3 2.2 6.2 4 73
r 39.697742 12 6 tcp 90 ------- 3 2.2 6.2 4 73
+ 39.697742 6 12 tcp 90 ------- 10 6.6 0.1 7 74
- 39.697742 6 12 tcp 90 ------- 10 6.6 0.1 7 74
r 39.748222 6 12 tcp 90 ------- 10 6.6 0.1 7 74
+ 39.748222 12 1 tcp 90 ------- 10 6.6 0.1 7 74
- 39.748222 12 1 tcp 90 ------- 10 6.6 0.1 7 74
r 39.798702 12 1 tcp 90 ------- 10 6.6 0.1 7 74
+ 39.798702 1 0 tcp 90 ------- 10 6.6 0.1 7 74
- 39.798702 1 0 tcp 90 ------- 10 6.6 0.1 7 74
r 39.899182 1 0 tcp 90 ------- 10 6.6 0.1 7 74
+ 39.899182 0 1 tcp 83 ------- 10 0.1 6.6 7 75
- 39.899182 0 1 tcp 83 ------- 10 0.1 6.6 7 75
r 39.999625 0 1 tcp 83 ------- 10 0.1 6.6 7 75
+ 39.999625 1 12 tcp 83 ------- 10 0.1 6.6 7 75
- 39.999625 1 12 tcp 83 ------- 10 0.1 6.6 7 75
r 40.050068 1 12 tcp 83 ------- 10 0.1 6.6 7 75
+ 40.050068 12 6 tcp 83 ------- 10 0.1 6.6 7 75
- 40.050068 12 6 tcp 83 ------- 10 0.1 6.6 7 75
r 40.10051 12 6 tcp 83 ------- 10 0.1 6.6 7 75
+ 40.10051 6 12 tcp 83 ------- 3 6.2 2.2 4 76
- 40.10051 6 12 tcp 83 ------- 3 6.2 2.2 4 76
r 40.150953 6 12 tcp 83 ------- 3 6.2 2.2 4 76
+ 40.150953 12 2 tcp 83 ------- 3 6.2 2.2 4 76
- 40.150953 12 2 tcp 83 ------- 3 6.2 2.2 4 76
r 40.201396 12 2 tcp 83 ------- 3 6.2 2.2 4 76
+ 40.201396 2 8 tcp 1064 ------- 2 2.1 8.1 7 77
- 40.201396 2 8 tcp 1064 ------- 2 2.1 8.1 7 77
r 40.204247 2 8 tcp 1064 ------- 2 2.1 8.1 7 77
+ 40.204247 8 2 tcp 83 ------- 2 8.1 2.1 8 78
- 40.204247 8 2 tcp 83 ------- 2 8.1 2.1 8 78
r 40.206313 8 2 tcp 83 ------- 2 8.1 2.1 8 78
+ 40.206313 2 8 tcp 1064 ------- 2 2.1 8.1 8 79
- 40.206313 2 8 tcp 1064 ------- 2 2.1 8.1 8 79
r 40.209165 2 8 tcp 1064 ------- 2 2.1 8.1 8 79
+ 42.039988 8 2 tcp 83 ------- 2 8.1 2.1 9 80
- 42.039988 8 2 tcp 83 ------- 2 8.1 2.1 9 80
r 42.042054 8 2 tcp 83 ------- 2 8.1 2.1 9 80
+ 42.042054 2 12 tcp 90 ------- 3 2.2 6.2 5 81
- 42.042054 2 12 tcp 90 ------- 3 2.2 6.2 5 81
r 42.092534 2 12 tcp 90 ------- 3 2.2 6.2 5 81
+ 42.092534 12 6 tcp 90 ------- 3 2.2 6.2 5 81
- 42.092534 12 6 tcp 90 ------- 3 2.2 6.2 5 81
r 42.143014 12 6 tcp 90 ------- 3 2.2 6.2 5 81
+ 42.143014 6 12 tcp 90 ------- 10 6.6 0.1 8 82
- 42.143014 6 12 tcp 90 ------- 10 6.6 0.1 8 82
r 42.193494 6 12 tcp 90 ------- 10 6.6 0.1 8 82
+ 42.193494 12 1 tcp 90 ------- 10 6.6 0.1 8 82
- 42.193494 12 1 tcp 90 ------- 10 6.6 0.1 8 82
r 42.243974 12 1 tcp 90 ------- 10 6.6 0.1 8 82
+ 42.243974 1 0 tcp 90 ------- 10 6.6 0.1 8 82
- 42.243974 1 0 tcp 90 ------- 10 6.6 0.1 8 82
+ 42.246471 7 1 tcp 83 ------- 0 7.1 1.1 5 83
- 42.246471 7 1 tcp 83 ------- 0 7.1 1.1 5 83
r 42.248537 7 1 tcp 83 ------- 0 7.1 1.1 5 83
+ 42.248537 1 12 tcp 90 ------- 1 1.2 6.1 3 84
- 42.248537 1 12 tcp 90 ------- 1 1.2 6.1 3 84
r 42.299017 1 12 tcp 90 ------- 1 1.2 6.1 3 84
+ 42.299017 12 6 tcp 90 ------- 1 1.2 6.1 3 84
- 42.299017 12 6 tcp 90 ------- 1 1.2 6.1 3 84
r 42.344454 1 0 tcp 90 ------- 10 6.6 0.1 8 82
+ 42.344454 0 1 tcp 83 ------- 10 0.1 6.6 8 85
- 42.344454 0 1 tcp 83 ------- 10 0.1 6.6 8 85
r 42.349497 12 6 tcp 90 ------- 1 1.2 6.1 3 84
r 42.444897 0 1 tcp 83 ------- 10 0.1 6.6 8 85
+ 42.444897 1 12 tcp 83 ------- 10 0.1 6.6 8 85
- 42.444897 1 12 tcp 83 ------- 10 0.1 6.6 8 85
r 42.49534 1 12 tcp 83 ------- 10 0.1 6.6 8 85
+ 42.49534 12 6 tcp 83 ------- 10 0.1 6.6 8 85
- 42.49534 12 6 tcp 83 ------- 10 0.1 6.6 8 85
r 42.545782 12 6 tcp 83 ------- 10 0.1 6.6 8 85
+ 42.545782 6 12 tcp 83 ------- 3 6.2 2.2 5 86
- 42.545782 6 12 tcp 83 ------- 3 6.2 2.2 5 86
+ 42.545782 6 12 tcp 83 ------- 1 6.1 1.2 3 87
- 42.546225 6 12 tcp 83 ------- 1 6.1 1.2 3 87
r 42.596225 6 12 tcp 83 ------- 3 6.2 2.2 5 86
+ 42.596225 12 2 tcp 83 ------- 3 6.2 2.2 5 86
- 42.596225 12 2 tcp 83 ------- 3 6.2 2.2 5 86
r 42.596668 6 12 tcp 83 ------- 1 6.1 1.2 3 87
+ 42.596668 12 1 tcp 83 ------- 1 6.1 1.2 3 87
- 42.596668 12 1 tcp 83 ------- 1 6.1 1.2 3 87
r 42.646668 12 2 tcp 83 ------- 3 6.2 2.2 5 86
+ 42.646668 2 8 tcp 1064 ------- 2 2.1 8.1 9 88
- 42.646668 2 8 tcp 1064 ------- 2 2.1 8.1 9 88
r 42.64711 12 1 tcp 83 ------- 1 6.1 1.2 3 87
+ 42.64711 1 7 tcp 1064 ------- 0 1.1 7.1 5 89
- 42.64711 1 7 tcp 1064 ------- 0 1.1 7.1 5 89
r 42.649519 2 8 tcp 1064 ------- 2 2.1 8.1 9 88
+ 42.649519 8 2 tcp 83 ------- 2 8.1 2.1 10 90
- 42.649519 8 2 tcp 83 ------- 2 8.1 2.1 10 90
r 42.649962 1 7 tcp 1064 ------- 0 1.1 7.1 5 89
+ 42.649962 7 1 tcp 83 ------- 0 7.1 1.1 6 91
- 42.649962 7 1 tcp 83 ------- 0 7.1 1.1 6 91
r 42.651585 8 2 tcp 83 ------- 2 8.1 2.1 10 90
+ 42.651585 2 8 tcp 1064 ------- 2 2.1 8.1 10 92
- 42.651585 2 8 tcp 1064 ------- 2 2.1 8.1 10 92
r 42.652028 7 1 tcp 83 ------- 0 7.1 1.1 6 91
+ 42.652028 1 7 tcp 1064 ------- 0 1.1 7.1 6 93
- 42.652028 1 7 tcp 1064 ------- 0 1.1 7.1 6 93
r 42.654437 2 8 tcp 1064 ------- 2 2.1 8.1 10 92
r 42.654879 1 7 tcp 1064 ------- 0 1.1 7.1 6 93
+ 42.952626 9 3 tcp 83 ------- 4 9.1 3.1 5 94
- 42.952626 9 3 tcp 83 ------- 4 9.1 3.1 5 94
r 42.954692 9 3 tcp 83 ------- 4 9.1 3.1 5 94
+ 42.954692 3 12 tcp 90 ------- 5 3.2 6.3 3 95
- 42.954692 3 12 tcp 90 ------- 5 3.2 6.3 3 95
r 43.005172 3 12 tcp 90 ------- 5 3.2 6.3 3 95
+ 43.005172 12 6 tcp 90 ------- 5 3.2 6.3 3 95
- 43.005172 12 6 tcp 90 ------- 5 3.2 6.3 3 95
r 43.055652 12 6 tcp 90 ------- 5 3.2 6.3 3 95
+ 43.055652 6 12 tcp 83 ------- 5 6.3 3.2 3 96
- 43.055652 6 12 tcp 83 ------- 5 6.3 3.2 3 96
r 43.106095 6 12 tcp 83 ------- 5 6.3 3.2 3 96
+ 43.106095 12 3 tcp 83 ------- 5 6.3 3.2 3 96
- 43.106095 12 3 tcp 83 ------- 5 6.3 3.2 3 96
r 43.156538 12 3 tcp 83 ------- 5 6.3 3.2 3 96
+ 43.156538 3 9 tcp 1064 ------- 4 3.1 9.1 5 97
- 43.156538 3 9 tcp 1064 ------- 4 3.1 9.1 5 97
r 43.159389 3 9 tcp 1064 ------- 4 3.1 9.1 5 97
+ 43.159389 9 3 tcp 83 ------- 4 9.1 3.1 6 98
- 43.159389 9 3 tcp 83 ------- 4 9.1 3.1 6 98
r 43.161455 9 3 tcp 83 ------- 4 9.1 3.1 6 98
+ 43.161455 3 9 tcp 1064 ------- 4 3.1 9.1 6 99
- 43.161455 3 9 tcp 1064 ------- 4 3.1 9.1 6 99
r 43.164307 3 9 tcp 1064 ------- 4 3.1 9.1 6 99
+ 44.425318 9 3 tcp 83 ------- 4 9.1 3.1 7 100
- 44.425318 9 3 tcp 83 ------- 4 9.1 3.1 7 100
r 44.427384 9 3 tcp 83 ------- 4 9.1 3.1 7 100
+ 44.427384 3 9 tcp 1064 ------- 4 3.1 9.1 7 101
- 44.427384 3 9 tcp 1064 ------- 4 3.1 9.1 7 101
r 44.430236 3 9 tcp 1064 ------- 4 3.1 9.1 7 101
+ 44.430236 9 3 tcp 83 ------- 4 9.1 3.1 8 102
- 44.430236 9 3 tcp 83 ------- 4 9.1 3.1 8 102
r 44.432302 9 3 tcp 83 ------- 4 9.1 3.1 8 102
+ 44.432302 3 9 tcp 1064 ------- 4 3.1 9.1 8 103
- 44.432302 3 9 tcp 1064 ------- 4 3.1 9.1 8 103
r 44.435153 3 9 tcp 1064 ------- 4 3.1 9.1 8 103
+ 46.318036 9 3 tcp 83 ------- 4 9.1 3.1 9 104
- 46.318036 9 3 tcp 83 ------- 4 9.1 3.1 9 104
r 46.320102 9 3 tcp 83 ------- 4 9.1 3.1 9 104
+ 46.320102 3 12 tcp 90 ------- 5 3.2 6.3 4 105
- 46.320102 3 12 tcp 90 ------- 5 3.2 6.3 4 105
r 46.370582 3 12 tcp 90 ------- 5 3.2 6.3 4 105
+ 46.370582 12 6 tcp 90 ------- 5 3.2 6.3 4 105
- 46.370582 12 6 tcp 90 ------- 5 3.2 6.3 4 105
r 46.421062 12 6 tcp 90 ------- 5 3.2 6.3 4 105
+ 46.421062 6 12 tcp 90 ------- 10 6.6 0.1 9 106
- 46.421062 6 12 tcp 90 ------- 10 6.6 0.1 9 106
r 46.471542 6 12 tcp 90 ------- 10 6.6 0.1 9 106
+ 46.471542 12 1 tcp 90 ------- 10 6.6 0.1 9 106
- 46.471542 12 1 tcp 90 ------- 10 6.6 0.1 9 106
r 46.522022 12 1 tcp 90 ------- 10 6.6 0.1 9 106
+ 46.522022 1 0 tcp 90 ------- 10 6.6 0.1 9 106
- 46.522022 1 0 tcp 90 ------- 10 6.6 0.1 9 106
r 46.622502 1 0 tcp 90 ------- 10 6.6 0.1 9 106
+ 46.622502 0 1 tcp 83 ------- 10 0.1 6.6 9 107
- 46.622502 0 1 tcp 83 ------- 10 0.1 6.6 9 107
r 46.722945 0 1 tcp 83 ------- 10 0.1 6.6 9 107
+ 46.722945 1 12 tcp 83 ------- 10 0.1 6.6 9 107
- 46.722945 1 12 tcp 83 ------- 10 0.1 6.6 9 107
r 46.773388 1 12 tcp 83 ------- 10 0.1 6.6 9 107
+ 46.773388 12 6 tcp 83 ------- 10 0.1 6.6 9 107
- 46.773388 12 6 tcp 83 ------- 10 0.1 6.6 9 107
r 46.82383 12 6 tcp 83 ------- 10 0.1 6.6 9 107
+ 46.82383 6 12 tcp 83 ------- 5 6.3 3.2 4 108
- 46.82383 6 12 tcp 83 ------- 5 6.3 3.2 4 108
r 46.874273 6 12 tcp 83 ------- 5 6.3 3.2 4 108
+ 46.874273 12 3 tcp 83 ------- 5 6.3 3.2 4 108
- 46.874273 12 3 tcp 83 ------- 5 6.3 3.2 4 108
r 46.924716 12 3 tcp 83 ------- 5 6.3 3.2 4 108
+ 46.924716 3 9 tcp 1064 ------- 4 3.1 9.1 9 109
- 46.924716 3 9 tcp 1064 ------- 4 3.1 9.1 9 109
r 46.927567 3 9 tcp 1064 ------- 4 3.1 9.1 9 109
+ 46.927567 9 3 tcp 83 ------- 4 9.1 3.1 10 110
- 46.927567 9 3 tcp 83 ------- 4 9.1 3.1 10 110
r 46.929633 9 3 tcp 83 ------- 4 9.1 3.1 10 110
+ 46.929633 3 9 tcp 1064 ------- 4 3.1 9.1 10 111
- 46.929633 3 9 tcp 1064 ------- 4 3.1 9.1 10 111
r 46.932485 3 9 tcp 1064 ------- 4 3.1 9.1 10 111
+ 47.470562 9 3 tcp 83 ------- 4 9.1 3.1 11 112
- 47.470562 9 3 tcp 83 ------- 4 9.1 3.1 11 112
r 47.472628 9 3 tcp 83 ------- 4 9.1 3.1 11 112
+ 47.472628 3 9 tcp 1064 ------- 4 3.1 9.1 11 113
- 47.472628 3 9 tcp 1064 ------- 4 3.1 9.1 11 113
r 47.47548 3 9 tcp 1064 ------- 4 3.1 9.1 11 113
+ 47.47548 9 3 tcp 83 ------- 4 9.1 3.1 12 114
- 47.47548 9 3 tcp 83 ------- 4 9.1 3.1 12 114
r 47.477546 9 3 tcp 83 ------- 4 9.1 3.1 12 114
+ 47.477546 3 9 tcp 1064 ------- 4 3.1 9.1 12 115
- 47.477546 3 9 tcp 1064 ------- 4 3.1 9.1 12 115
r 47.480397 3 9 tcp 1064 ------- 4 3.1 9.1 12 115
+ 47.684901 8 2 tcp 83 ------- 2 8.1 2.1 11 116
- 47.684901 8 2 tcp 83 ------- 2 8.1 2.1 11 116
r 47.686967 8 2 tcp 83 ------- 2 8.1 2.1 11 116
+ 47.686967 2 12 tcp 90 ------- 3 2.2 6.2 6 117
- 47.686967 2 12 tcp 90 ------- 3 2.2 6.2 6 117
r 47.737447 2 12 tcp 90 ------- 3 2.2 6.2 6 117
+ 47.737447 12 6 tcp 90 ------- 3 2.2 6.2 6 117
- 47.737447 12 6 tcp 90 ------- 3 2.2 6.2 6 117
r 47.787927 12 6 tcp 90 ------- 3 2.2 6.2 6 117
+ 47.787927 6 12 tcp 83 ------- 3 6.2 2.2 6 118
- 47.787927 6 12 tcp 83 ------- 3 6.2 2.2 6 118
r 47.83837 6 12 tcp 83 ------- 3 6.2 2.2 6 118
+ 47.83837 12 2 tcp 83 ------- 3 6.2 2.2 6 118
- 47.83837 12 2 tcp 83 ------- 3 6.2 2.2 6 118
r 47.888813 12 2 tcp 83 ------- 3 6.2 2.2 6 118
+ 47.888813 2 8 tcp 1064 ------- 2 2.1 8.1 11 119
- 47.888813 2 8 tcp 1064 ------- 2 2.1 8.1 11 119
r 47.891664 2 8 tcp 1064 ------- 2 2.1 8.1 11 119
+ 47.891664 8 2 tcp 83 ------- 2 8.1 2.1 12 120
- 47.891664 8 2 tcp 83 ------- 2 8.1 2.1 12 120
r 47.89373 8 2 tcp 83 ------- 2 8.1 2.1 12 120
+ 47.89373 2 8 tcp 1064 ------- 2 2.1 8.1 12 121
- 47.89373 2 8 tcp 1064 ------- 2 2.1 8.1 12 121
r 47.896582 2 8 tcp 1064 ------- 2 2.1 8.1 12 121
+ 48.837533 9 3 tcp 83 ------- 4 9.1 3.1 13 122
- 48.837533 9 3 tcp 83 ------- 4 9.1 3.1 13 122
r 48.839599 9 3 tcp 83 ------- 4 9.1 3.1 13 122
+ 48.839599 3 9 tcp 1064 ------- 4 3.1 9.1 13 123
- 48.839599 3 9 tcp 1064 ------- 4 3.1 9.1 13 123
r 48.842451 3 9 tcp 1064 ------- 4 3.1 9.1 13 123
+ 48.842451 9 3 tcp 83 ------- 4 9.1 3.1 14 124
- 48.842451 9 3 tcp 83 ------- 4 9.1 3.1 14 124
r 48.844517 9 3 tcp 83 ------- 4 9.1 3.1 14 124
+ 48.844517 3 9 tcp 1064 ------- 4 3.1 9.1 14 125
- 48.844517 3 9 tcp 1064 ------- 4 3.1 9.1 14 125
r 48.847368 3 9 tcp 1064 ------- 4 3.1 9.1 14 125
+ 50.091307 7 1 tcp 83 ------- 0 7.1 1.1 7 126
- 50.091307 7 1 tcp 83 ------- 0 7.1 1.1 7 126
r 50.093373 7 1 tcp 83 ------- 0 7.1 1.1 7 126
+ 50.093373 1 12 tcp 90 ------- 1 1.2 6.1 4 127
- 50.093373 1 12 tcp 90 ------- 1 1.2 6.1 4 127
r 50.143853 1 12 tcp 90 ------- 1 1.2 6.1 4 127
+ 50.143853 12 6 tcp 90 ------- 1 1.2 6.1 4 127
- 50.143853 12 6 tcp 90 ------- 1 1.2 6.1 4 127
r 50.194333 12 6 tcp 90 ------- 1 1.2 6.1 4 127
+ 50.194333 6 12 tcp 90 ------- 10 6.6 0.1 10 128
- 50.194333 6 12 tcp 90 ------- 10 6.6 0.1 10 128
r 50.244813 6 12 tcp 90 ------- 10 6.6 0.1 10 128
+ 50.244813 12 1 tcp 90 ------- 10 6.6 0.1 10 128
- 50.244813 12 1 tcp 90 ------- 10 6.6 0.1 10 128
r 50.295293 12 1 tcp 90 ------- 10 6.6 0.1 10 128
+ 50.295293 1 0 tcp 90 ------- 10 6.6 0.1 10 128
- 50.295293 1 0 tcp 90 ------- 10 6.6 0.1 10 128
r 50.395773 1 0 tcp 90 ------- 10 6.6 0.1 10 128
+ 50.395773 0 1 tcp 83 ------- 10 0.1 6.6 10 129
- 50.395773 0 1 tcp 83 ------- 10 0.1 6.6 10 129
r 50.496216 0 1 tcp 83 ------- 10 0.1 6.6 10 129
+ 50.496216 1 12 tcp 83 ------- 10 0.1 6.6 10 129
- 50.496216 1 12 tcp 83 ------- 10 0.1 6.6 10 129
r 50.546658 1 12 tcp 83 ------- 10 0.1 6.6 10 129
+ 50.546658 12 6 tcp 83 ------- 10 0.1 6.6 10 129
- 50.546658 12 6 tcp 83 ------- 10 0.1 6.6 10 129
r 50.597101 12 6 tcp 83 ------- 10 0.1 6.6 10 129
+ 50.597101 6 12 tcp 83 ------- 1 6.1 1.2 4 130
- 50.597101 6 12 tcp 83 ------- 1 6.1 1.2 4 130
r 50.647544 6 12 tcp 83 ------- 1 6.1 1.2 4 130
+ 50.647544 12 1 tcp 83 ------- 1 6.1 1.2 4 130
- 50.647544 12 1 tcp 83 ------- 1 6.1 1.2 4 130