+ 0.1 1 0 encap 230 ------- 0 1.3 2.0 -1 1
- 0.1 1 0 encap 230 ------- 0 1.3 2.0 -1 1
v 0.1 eval {set sim_annotation {0.10000000000000001 1 join-group 2147483648}}
v 0.1 eval {set sim_annotation {0.10000000000000001 0 join-group 2147483648}}
v 0.1 eval {set sim_annotation {0.10000000000000001 2 join-group 2147483648}}
+ 0.10375 1 0 encap 230 ------- 0 1.3 2.0 -1 3
- 0.10375 1 0 encap 230 ------- 0 1.3 2.0 -1 3
+ 0.1075 1 0 encap 230 ------- 0 1.3 2.0 -1 5
- 0.1075 1 0 encap 230 ------- 0 1.3 2.0 -1 5
r 0.111227 1 0 encap 230 ------- 0 1.3 2.0 -1 1
+ 0.111227 0 2 encap 230 ------- 0 1.3 2.0 -1 1
- 0.111227 0 2 encap 230 ------- 0 1.3 2.0 -1 1
+ 0.11125 1 0 encap 230 ------- 0 1.3 2.0 -1 7
- 0.11125 1 0 encap 230 ------- 0 1.3 2.0 -1 7
r 0.114977 1 0 encap 230 ------- 0 1.3 2.0 -1 3
+ 0.114977 0 2 encap 230 ------- 0 1.3 2.0 -1 3
- 0.114977 0 2 encap 230 ------- 0 1.3 2.0 -1 3
+ 0.115 1 0 encap 230 ------- 0 1.3 2.0 -1 9
- 0.115 1 0 encap 230 ------- 0 1.3 2.0 -1 9
r 0.118727 1 0 encap 230 ------- 0 1.3 2.0 -1 5
+ 0.118727 0 2 encap 230 ------- 0 1.3 2.0 -1 5
- 0.118727 0 2 encap 230 ------- 0 1.3 2.0 -1 5
+ 0.11875 1 0 encap 230 ------- 0 1.3 2.0 -1 11
- 0.11875 1 0 encap 230 ------- 0 1.3 2.0 -1 11
r 0.122453 0 2 encap 230 ------- 0 1.3 2.0 -1 1
r 0.122477 1 0 encap 230 ------- 0 1.3 2.0 -1 7
+ 0.122477 0 2 encap 230 ------- 0 1.3 2.0 -1 7
- 0.122477 0 2 encap 230 ------- 0 1.3 2.0 -1 7
+ 0.1225 1 0 encap 230 ------- 0 1.3 2.0 -1 13
- 0.1225 1 0 encap 230 ------- 0 1.3 2.0 -1 13
r 0.126203 0 2 encap 230 ------- 0 1.3 2.0 -1 3
r 0.126227 1 0 encap 230 ------- 0 1.3 2.0 -1 9
+ 0.126227 0 2 encap 230 ------- 0 1.3 2.0 -1 9
- 0.126227 0 2 encap 230 ------- 0 1.3 2.0 -1 9
+ 0.12625 1 0 encap 230 ------- 0 1.3 2.0 -1 15
- 0.12625 1 0 encap 230 ------- 0 1.3 2.0 -1 15
r 0.129953 0 2 encap 230 ------- 0 1.3 2.0 -1 5
r 0.129977 1 0 encap 230 ------- 0 1.3 2.0 -1 11
+ 0.129977 0 2 encap 230 ------- 0 1.3 2.0 -1 11
- 0.129977 0 2 encap 230 ------- 0 1.3 2.0 -1 11
+ 0.13 1 0 encap 230 ------- 0 1.3 2.0 -1 17
- 0.13 1 0 encap 230 ------- 0 1.3 2.0 -1 17
r 0.133703 0 2 encap 230 ------- 0 1.3 2.0 -1 7
r 0.133727 1 0 encap 230 ------- 0 1.3 2.0 -1 13
+ 0.133727 0 2 encap 230 ------- 0 1.3 2.0 -1 13
- 0.133727 0 2 encap 230 ------- 0 1.3 2.0 -1 13
+ 0.13375 1 0 encap 230 ------- 0 1.3 2.0 -1 19
- 0.13375 1 0 encap 230 ------- 0 1.3 2.0 -1 19
r 0.137453 0 2 encap 230 ------- 0 1.3 2.0 -1 9
r 0.137477 1 0 encap 230 ------- 0 1.3 2.0 -1 15
+ 0.137477 0 2 encap 230 ------- 0 1.3 2.0 -1 15
- 0.137477 0 2 encap 230 ------- 0 1.3 2.0 -1 15
+ 0.1375 1 0 encap 230 ------- 0 1.3 2.0 -1 21
- 0.1375 1 0 encap 230 ------- 0 1.3 2.0 -1 21
r 0.141203 0 2 encap 230 ------- 0 1.3 2.0 -1 11
r 0.141227 1 0 encap 230 ------- 0 1.3 2.0 -1 17
+ 0.141227 0 2 encap 230 ------- 0 1.3 2.0 -1 17
- 0.141227 0 2 encap 230 ------- 0 1.3 2.0 -1 17
+ 0.14125 1 0 encap 230 ------- 0 1.3 2.0 -1 23
- 0.14125 1 0 encap 230 ------- 0 1.3 2.0 -1 23
r 0.144953 0 2 encap 230 ------- 0 1.3 2.0 -1 13
r 0.144977 1 0 encap 230 ------- 0 1.3 2.0 -1 19
+ 0.144977 0 2 encap 230 ------- 0 1.3 2.0 -1 19
- 0.144977 0 2 encap 230 ------- 0 1.3 2.0 -1 19
+ 0.145 1 0 encap 230 ------- 0 1.3 2.0 -1 25
- 0.145 1 0 encap 230 ------- 0 1.3 2.0 -1 25
r 0.148703 0 2 encap 230 ------- 0 1.3 2.0 -1 15
r 0.148727 1 0 encap 230 ------- 0 1.3 2.0 -1 21
+ 0.148727 0 2 encap 230 ------- 0 1.3 2.0 -1 21
- 0.148727 0 2 encap 230 ------- 0 1.3 2.0 -1 21
+ 0.14875 1 0 encap 230 ------- 0 1.3 2.0 -1 27
- 0.14875 1 0 encap 230 ------- 0 1.3 2.0 -1 27
r 0.152453 0 2 encap 230 ------- 0 1.3 2.0 -1 17
r 0.152477 1 0 encap 230 ------- 0 1.3 2.0 -1 23
+ 0.152477 0 2 encap 230 ------- 0 1.3 2.0 -1 23
- 0.152477 0 2 encap 230 ------- 0 1.3 2.0 -1 23
+ 0.1525 1 0 encap 230 ------- 0 1.3 2.0 -1 29
- 0.1525 1 0 encap 230 ------- 0 1.3 2.0 -1 29
r 0.156203 0 2 encap 230 ------- 0 1.3 2.0 -1 19
r 0.156227 1 0 encap 230 ------- 0 1.3 2.0 -1 25
+ 0.156227 0 2 encap 230 ------- 0 1.3 2.0 -1 25
- 0.156227 0 2 encap 230 ------- 0 1.3 2.0 -1 25
+ 0.15625 1 0 encap 230 ------- 0 1.3 2.0 -1 31
- 0.15625 1 0 encap 230 ------- 0 1.3 2.0 -1 31
r 0.159953 0 2 encap 230 ------- 0 1.3 2.0 -1 21
r 0.159977 1 0 encap 230 ------- 0 1.3 2.0 -1 27
+ 0.159977 0 2 encap 230 ------- 0 1.3 2.0 -1 27
- 0.159977 0 2 encap 230 ------- 0 1.3 2.0 -1 27
+ 0.16 1 0 encap 230 ------- 0 1.3 2.0 -1 33
- 0.16 1 0 encap 230 ------- 0 1.3 2.0 -1 33
r 0.163703 0 2 encap 230 ------- 0 1.3 2.0 -1 23
r 0.163727 1 0 encap 230 ------- 0 1.3 2.0 -1 29
+ 0.163727 0 2 encap 230 ------- 0 1.3 2.0 -1 29
- 0.163727 0 2 encap 230 ------- 0 1.3 2.0 -1 29
+ 0.16375 1 0 encap 230 ------- 0 1.3 2.0 -1 35
- 0.16375 1 0 encap 230 ------- 0 1.3 2.0 -1 35
r 0.167453 0 2 encap 230 ------- 0 1.3 2.0 -1 25
r 0.167477 1 0 encap 230 ------- 0 1.3 2.0 -1 31
+ 0.167477 0 2 encap 230 ------- 0 1.3 2.0 -1 31
- 0.167477 0 2 encap 230 ------- 0 1.3 2.0 -1 31
+ 0.1675 1 0 encap 230 ------- 0 1.3 2.0 -1 37
- 0.1675 1 0 encap 230 ------- 0 1.3 2.0 -1 37
r 0.171203 0 2 encap 230 ------- 0 1.3 2.0 -1 27
r 0.171227 1 0 encap 230 ------- 0 1.3 2.0 -1 33
+ 0.171227 0 2 encap 230 ------- 0 1.3 2.0 -1 33
- 0.171227 0 2 encap 230 ------- 0 1.3 2.0 -1 33
+ 0.17125 1 0 encap 230 ------- 0 1.3 2.0 -1 39
- 0.17125 1 0 encap 230 ------- 0 1.3 2.0 -1 39
r 0.174953 0 2 encap 230 ------- 0 1.3 2.0 -1 29
r 0.174977 1 0 encap 230 ------- 0 1.3 2.0 -1 35
+ 0.174977 0 2 encap 230 ------- 0 1.3 2.0 -1 35
- 0.174977 0 2 encap 230 ------- 0 1.3 2.0 -1 35
+ 0.175 1 0 encap 230 ------- 0 1.3 2.0 -1 41
- 0.175 1 0 encap 230 ------- 0 1.3 2.0 -1 41
r 0.178703 0 2 encap 230 ------- 0 1.3 2.0 -1 31
r 0.178727 1 0 encap 230 ------- 0 1.3 2.0 -1 37
+ 0.178727 0 2 encap 230 ------- 0 1.3 2.0 -1 37
- 0.178727 0 2 encap 230 ------- 0 1.3 2.0 -1 37
+ 0.17875 1 0 encap 230 ------- 0 1.3 2.0 -1 43
- 0.17875 1 0 encap 230 ------- 0 1.3 2.0 -1 43
r 0.182453 0 2 encap 230 ------- 0 1.3 2.0 -1 33
r 0.182477 1 0 encap 230 ------- 0 1.3 2.0 -1 39
+ 0.182477 0 2 encap 230 ------- 0 1.3 2.0 -1 39
- 0.182477 0 2 encap 230 ------- 0 1.3 2.0 -1 39
+ 0.1825 1 0 encap 230 ------- 0 1.3 2.0 -1 45
- 0.1825 1 0 encap 230 ------- 0 1.3 2.0 -1 45
r 0.186203 0 2 encap 230 ------- 0 1.3 2.0 -1 35
r 0.186227 1 0 encap 230 ------- 0 1.3 2.0 -1 41
+ 0.186227 0 2 encap 230 ------- 0 1.3 2.0 -1 41
- 0.186227 0 2 encap 230 ------- 0 1.3 2.0 -1 41
+ 0.18625 1 0 encap 230 ------- 0 1.3 2.0 -1 47
- 0.18625 1 0 encap 230 ------- 0 1.3 2.0 -1 47
r 0.189953 0 2 encap 230 ------- 0 1.3 2.0 -1 37
r 0.189977 1 0 encap 230 ------- 0 1.3 2.0 -1 43
+ 0.189977 0 2 encap 230 ------- 0 1.3 2.0 -1 43
- 0.189977 0 2 encap 230 ------- 0 1.3 2.0 -1 43
+ 0.19 1 0 encap 230 ------- 0 1.3 2.0 -1 49
- 0.19 1 0 encap 230 ------- 0 1.3 2.0 -1 49
r 0.193703 0 2 encap 230 ------- 0 1.3 2.0 -1 39
r 0.193727 1 0 encap 230 ------- 0 1.3 2.0 -1 45
+ 0.193727 0 2 encap 230 ------- 0 1.3 2.0 -1 45
- 0.193727 0 2 encap 230 ------- 0 1.3 2.0 -1 45
+ 0.19375 1 0 encap 230 ------- 0 1.3 2.0 -1 51
- 0.19375 1 0 encap 230 ------- 0 1.3 2.0 -1 51
r 0.197453 0 2 encap 230 ------- 0 1.3 2.0 -1 41
r 0.197477 1 0 encap 230 ------- 0 1.3 2.0 -1 47
+ 0.197477 0 2 encap 230 ------- 0 1.3 2.0 -1 47
- 0.197477 0 2 encap 230 ------- 0 1.3 2.0 -1 47
+ 0.1975 1 0 encap 230 ------- 0 1.3 2.0 -1 53
- 0.1975 1 0 encap 230 ------- 0 1.3 2.0 -1 53
r 0.201203 0 2 encap 230 ------- 0 1.3 2.0 -1 43
r 0.201227 1 0 encap 230 ------- 0 1.3 2.0 -1 49
+ 0.201227 0 2 encap 230 ------- 0 1.3 2.0 -1 49
- 0.201227 0 2 encap 230 ------- 0 1.3 2.0 -1 49
+ 0.20125 1 0 encap 230 ------- 0 1.3 2.0 -1 55
- 0.20125 1 0 encap 230 ------- 0 1.3 2.0 -1 55
r 0.204953 0 2 encap 230 ------- 0 1.3 2.0 -1 45
r 0.204977 1 0 encap 230 ------- 0 1.3 2.0 -1 51
+ 0.204977 0 2 encap 230 ------- 0 1.3 2.0 -1 51
- 0.204977 0 2 encap 230 ------- 0 1.3 2.0 -1 51
+ 0.205 1 0 encap 230 ------- 0 1.3 2.0 -1 57
- 0.205 1 0 encap 230 ------- 0 1.3 2.0 -1 57
r 0.208703 0 2 encap 230 ------- 0 1.3 2.0 -1 47
r 0.208727 1 0 encap 230 ------- 0 1.3 2.0 -1 53
+ 0.208727 0 2 encap 230 ------- 0 1.3 2.0 -1 53
- 0.208727 0 2 encap 230 ------- 0 1.3 2.0 -1 53
+ 0.20875 1 0 encap 230 ------- 0 1.3 2.0 -1 59
- 0.20875 1 0 encap 230 ------- 0 1.3 2.0 -1 59
r 0.212453 0 2 encap 230 ------- 0 1.3 2.0 -1 49
r 0.212477 1 0 encap 230 ------- 0 1.3 2.0 -1 55
+ 0.212477 0 2 encap 230 ------- 0 1.3 2.0 -1 55
- 0.212477 0 2 encap 230 ------- 0 1.3 2.0 -1 55
+ 0.2125 1 0 encap 230 ------- 0 1.3 2.0 -1 61
- 0.2125 1 0 encap 230 ------- 0 1.3 2.0 -1 61
r 0.216203 0 2 encap 230 ------- 0 1.3 2.0 -1 51
r 0.216227 1 0 encap 230 ------- 0 1.3 2.0 -1 57
+ 0.216227 0 2 encap 230 ------- 0 1.3 2.0 -1 57
- 0.216227 0 2 encap 230 ------- 0 1.3 2.0 -1 57
+ 0.21625 1 0 encap 230 ------- 0 1.3 2.0 -1 63
- 0.21625 1 0 encap 230 ------- 0 1.3 2.0 -1 63
r 0.219953 0 2 encap 230 ------- 0 1.3 2.0 -1 53
r 0.219977 1 0 encap 230 ------- 0 1.3 2.0 -1 59
+ 0.219977 0 2 encap 230 ------- 0 1.3 2.0 -1 59
- 0.219977 0 2 encap 230 ------- 0 1.3 2.0 -1 59
+ 0.22 1 0 encap 230 ------- 0 1.3 2.0 -1 65
- 0.22 1 0 encap 230 ------- 0 1.3 2.0 -1 65
r 0.223703 0 2 encap 230 ------- 0 1.3 2.0 -1 55
r 0.223727 1 0 encap 230 ------- 0 1.3 2.0 -1 61
+ 0.223727 0 2 encap 230 ------- 0 1.3 2.0 -1 61
- 0.223727 0 2 encap 230 ------- 0 1.3 2.0 -1 61
+ 0.22375 1 0 encap 230 ------- 0 1.3 2.0 -1 67
- 0.22375 1 0 encap 230 ------- 0 1.3 2.0 -1 67
r 0.227453 0 2 encap 230 ------- 0 1.3 2.0 -1 57
r 0.227477 1 0 encap 230 ------- 0 1.3 2.0 -1 63
+ 0.227477 0 2 encap 230 ------- 0 1.3 2.0 -1 63
- 0.227477 0 2 encap 230 ------- 0 1.3 2.0 -1 63
+ 0.2275 1 0 encap 230 ------- 0 1.3 2.0 -1 69
- 0.2275 1 0 encap 230 ------- 0 1.3 2.0 -1 69
r 0.231203 0 2 encap 230 ------- 0 1.3 2.0 -1 59
r 0.231227 1 0 encap 230 ------- 0 1.3 2.0 -1 65
+ 0.231227 0 2 encap 230 ------- 0 1.3 2.0 -1 65
- 0.231227 0 2 encap 230 ------- 0 1.3 2.0 -1 65
+ 0.23125 1 0 encap 230 ------- 0 1.3 2.0 -1 71
- 0.23125 1 0 encap 230 ------- 0 1.3 2.0 -1 71
r 0.234953 0 2 encap 230 ------- 0 1.3 2.0 -1 61
r 0.234977 1 0 encap 230 ------- 0 1.3 2.0 -1 67
+ 0.234977 0 2 encap 230 ------- 0 1.3 2.0 -1 67
- 0.234977 0 2 encap 230 ------- 0 1.3 2.0 -1 67
+ 0.235 1 0 encap 230 ------- 0 1.3 2.0 -1 73
- 0.235 1 0 encap 230 ------- 0 1.3 2.0 -1 73
r 0.238703 0 2 encap 230 ------- 0 1.3 2.0 -1 63
r 0.238727 1 0 encap 230 ------- 0 1.3 2.0 -1 69
+ 0.238727 0 2 encap 230 ------- 0 1.3 2.0 -1 69
- 0.238727 0 2 encap 230 ------- 0 1.3 2.0 -1 69
+ 0.23875 1 0 encap 230 ------- 0 1.3 2.0 -1 75
- 0.23875 1 0 encap 230 ------- 0 1.3 2.0 -1 75
r 0.242453 0 2 encap 230 ------- 0 1.3 2.0 -1 65
r 0.242477 1 0 encap 230 ------- 0 1.3 2.0 -1 71
+ 0.242477 0 2 encap 230 ------- 0 1.3 2.0 -1 71
- 0.242477 0 2 encap 230 ------- 0 1.3 2.0 -1 71
+ 0.2425 1 0 encap 230 ------- 0 1.3 2.0 -1 77
- 0.2425 1 0 encap 230 ------- 0 1.3 2.0 -1 77
r 0.246203 0 2 encap 230 ------- 0 1.3 2.0 -1 67
r 0.246227 1 0 encap 230 ------- 0 1.3 2.0 -1 73
+ 0.246227 0 2 encap 230 ------- 0 1.3 2.0 -1 73
- 0.246227 0 2 encap 230 ------- 0 1.3 2.0 -1 73
+ 0.24625 1 0 encap 230 ------- 0 1.3 2.0 -1 79
- 0.24625 1 0 encap 230 ------- 0 1.3 2.0 -1 79
r 0.249953 0 2 encap 230 ------- 0 1.3 2.0 -1 69
r 0.249977 1 0 encap 230 ------- 0 1.3 2.0 -1 75
+ 0.249977 0 2 encap 230 ------- 0 1.3 2.0 -1 75
- 0.249977 0 2 encap 230 ------- 0 1.3 2.0 -1 75
+ 0.25 1 0 encap 230 ------- 0 1.3 2.0 -1 81
- 0.25 1 0 encap 230 ------- 0 1.3 2.0 -1 81
r 0.253703 0 2 encap 230 ------- 0 1.3 2.0 -1 71
r 0.253727 1 0 encap 230 ------- 0 1.3 2.0 -1 77
+ 0.253727 0 2 encap 230 ------- 0 1.3 2.0 -1 77
- 0.253727 0 2 encap 230 ------- 0 1.3 2.0 -1 77
+ 0.25375 1 0 encap 230 ------- 0 1.3 2.0 -1 83
- 0.25375 1 0 encap 230 ------- 0 1.3 2.0 -1 83
r 0.257453 0 2 encap 230 ------- 0 1.3 2.0 -1 73
r 0.257477 1 0 encap 230 ------- 0 1.3 2.0 -1 79
+ 0.257477 0 2 encap 230 ------- 0 1.3 2.0 -1 79
- 0.257477 0 2 encap 230 ------- 0 1.3 2.0 -1 79
+ 0.2575 1 0 encap 230 ------- 0 1.3 2.0 -1 85
- 0.2575 1 0 encap 230 ------- 0 1.3 2.0 -1 85
r 0.261203 0 2 encap 230 ------- 0 1.3 2.0 -1 75
r 0.261227 1 0 encap 230 ------- 0 1.3 2.0 -1 81
+ 0.261227 0 2 encap 230 ------- 0 1.3 2.0 -1 81
- 0.261227 0 2 encap 230 ------- 0 1.3 2.0 -1 81
+ 0.26125 1 0 encap 230 ------- 0 1.3 2.0 -1 87
- 0.26125 1 0 encap 230 ------- 0 1.3 2.0 -1 87
r 0.264953 0 2 encap 230 ------- 0 1.3 2.0 -1 77
r 0.264977 1 0 encap 230 ------- 0 1.3 2.0 -1 83
+ 0.264977 0 2 encap 230 ------- 0 1.3 2.0 -1 83
- 0.264977 0 2 encap 230 ------- 0 1.3 2.0 -1 83
+ 0.265 1 0 encap 230 ------- 0 1.3 2.0 -1 89
- 0.265 1 0 encap 230 ------- 0 1.3 2.0 -1 89
r 0.268703 0 2 encap 230 ------- 0 1.3 2.0 -1 79
r 0.268727 1 0 encap 230 ------- 0 1.3 2.0 -1 85
+ 0.268727 0 2 encap 230 ------- 0 1.3 2.0 -1 85
- 0.268727 0 2 encap 230 ------- 0 1.3 2.0 -1 85
+ 0.26875 1 0 encap 230 ------- 0 1.3 2.0 -1 91
- 0.26875 1 0 encap 230 ------- 0 1.3 2.0 -1 91
r 0.272453 0 2 encap 230 ------- 0 1.3 2.0 -1 81
r 0.272477 1 0 encap 230 ------- 0 1.3 2.0 -1 87
+ 0.272477 0 2 encap 230 ------- 0 1.3 2.0 -1 87
- 0.272477 0 2 encap 230 ------- 0 1.3 2.0 -1 87
+ 0.2725 1 0 encap 230 ------- 0 1.3 2.0 -1 93
- 0.2725 1 0 encap 230 ------- 0 1.3 2.0 -1 93
r 0.276203 0 2 encap 230 ------- 0 1.3 2.0 -1 83
r 0.276227 1 0 encap 230 ------- 0 1.3 2.0 -1 89
+ 0.276227 0 2 encap 230 ------- 0 1.3 2.0 -1 89
- 0.276227 0 2 encap 230 ------- 0 1.3 2.0 -1 89
+ 0.27625 1 0 encap 230 ------- 0 1.3 2.0 -1 95
- 0.27625 1 0 encap 230 ------- 0 1.3 2.0 -1 95
r 0.279953 0 2 encap 230 ------- 0 1.3 2.0 -1 85
r 0.279977 1 0 encap 230 ------- 0 1.3 2.0 -1 91
+ 0.279977 0 2 encap 230 ------- 0 1.3 2.0 -1 91
- 0.279977 0 2 encap 230 ------- 0 1.3 2.0 -1 91
+ 0.28 1 0 encap 230 ------- 0 1.3 2.0 -1 97
- 0.28 1 0 encap 230 ------- 0 1.3 2.0 -1 97
r 0.283703 0 2 encap 230 ------- 0 1.3 2.0 -1 87
r 0.283727 1 0 encap 230 ------- 0 1.3 2.0 -1 93
+ 0.283727 0 2 encap 230 ------- 0 1.3 2.0 -1 93
- 0.283727 0 2 encap 230 ------- 0 1.3 2.0 -1 93
+ 0.28375 1 0 encap 230 ------- 0 1.3 2.0 -1 99
- 0.28375 1 0 encap 230 ------- 0 1.3 2.0 -1 99
r 0.287453 0 2 encap 230 ------- 0 1.3 2.0 -1 89
r 0.287477 1 0 encap 230 ------- 0 1.3 2.0 -1 95
+ 0.287477 0 2 encap 230 ------- 0 1.3 2.0 -1 95
- 0.287477 0 2 encap 230 ------- 0 1.3 2.0 -1 95
+ 0.2875 1 0 encap 230 ------- 0 1.3 2.0 -1 101
- 0.2875 1 0 encap 230 ------- 0 1.3 2.0 -1 101
r 0.291203 0 2 encap 230 ------- 0 1.3 2.0 -1 91
r 0.291227 1 0 encap 230 ------- 0 1.3 2.0 -1 97
+ 0.291227 0 2 encap 230 ------- 0 1.3 2.0 -1 97
- 0.291227 0 2 encap 230 ------- 0 1.3 2.0 -1 97
+ 0.29125 1 0 encap 230 ------- 0 1.3 2.0 -1 103
- 0.29125 1 0 encap 230 ------- 0 1.3 2.0 -1 103
r 0.294953 0 2 encap 230 ------- 0 1.3 2.0 -1 93
r 0.294977 1 0 encap 230 ------- 0 1.3 2.0 -1 99
+ 0.294977 0 2 encap 230 ------- 0 1.3 2.0 -1 99
- 0.294977 0 2 encap 230 ------- 0 1.3 2.0 -1 99
+ 0.295 1 0 encap 230 ------- 0 1.3 2.0 -1 105
- 0.295 1 0 encap 230 ------- 0 1.3 2.0 -1 105
r 0.298703 0 2 encap 230 ------- 0 1.3 2.0 -1 95
r 0.298727 1 0 encap 230 ------- 0 1.3 2.0 -1 101
+ 0.298727 0 2 encap 230 ------- 0 1.3 2.0 -1 101
- 0.298727 0 2 encap 230 ------- 0 1.3 2.0 -1 101
+ 0.29875 1 0 encap 230 ------- 0 1.3 2.0 -1 107
- 0.29875 1 0 encap 230 ------- 0 1.3 2.0 -1 107
v 0.3 eval {set sim_annotation {2147483648 switch tree type}}
r 0.302453 0 2 encap 230 ------- 0 1.3 2.0 -1 97
r 0.302477 1 0 encap 230 ------- 0 1.3 2.0 -1 103
+ 0.302477 0 2 encap 230 ------- 0 1.3 2.0 -1 103
- 0.302477 0 2 encap 230 ------- 0 1.3 2.0 -1 103
+ 0.3025 1 0 encap 230 ------- 0 1.3 2.0 -1 109
- 0.3025 1 0 encap 230 ------- 0 1.3 2.0 -1 109
r 0.306203 0 2 encap 230 ------- 0 1.3 2.0 -1 99
r 0.306227 1 0 encap 230 ------- 0 1.3 2.0 -1 105
+ 0.306227 0 2 encap 230 ------- 0 1.3 2.0 -1 105
- 0.306227 0 2 encap 230 ------- 0 1.3 2.0 -1 105
+ 0.30625 1 0 encap 230 ------- 0 1.3 2.0 -1 111
- 0.30625 1 0 encap 230 ------- 0 1.3 2.0 -1 111
r 0.309953 0 2 encap 230 ------- 0 1.3 2.0 -1 101
r 0.309977 1 0 encap 230 ------- 0 1.3 2.0 -1 107
+ 0.309977 0 2 encap 230 ------- 0 1.3 2.0 -1 107
- 0.309977 0 2 encap 230 ------- 0 1.3 2.0 -1 107
+ 0.31 1 0 encap 230 ------- 0 1.3 2.0 -1 113
- 0.31 1 0 encap 230 ------- 0 1.3 2.0 -1 113
r 0.313703 0 2 encap 230 ------- 0 1.3 2.0 -1 103
r 0.313727 1 0 encap 230 ------- 0 1.3 2.0 -1 109
+ 0.313727 0 2 encap 230 ------- 0 1.3 2.0 -1 109
- 0.313727 0 2 encap 230 ------- 0 1.3 2.0 -1 109
+ 0.31375 1 0 encap 230 ------- 0 1.3 2.0 -1 115
- 0.31375 1 0 encap 230 ------- 0 1.3 2.0 -1 115
r 0.317453 0 2 encap 230 ------- 0 1.3 2.0 -1 105
r 0.317477 1 0 encap 230 ------- 0 1.3 2.0 -1 111
+ 0.317477 0 2 encap 230 ------- 0 1.3 2.0 -1 111
- 0.317477 0 2 encap 230 ------- 0 1.3 2.0 -1 111
+ 0.3175 1 0 encap 230 ------- 0 1.3 2.0 -1 117
- 0.3175 1 0 encap 230 ------- 0 1.3 2.0 -1 117
r 0.321203 0 2 encap 230 ------- 0 1.3 2.0 -1 107
r 0.321227 1 0 encap 230 ------- 0 1.3 2.0 -1 113
+ 0.321227 0 2 encap 230 ------- 0 1.3 2.0 -1 113
- 0.321227 0 2 encap 230 ------- 0 1.3 2.0 -1 113
+ 0.32125 1 0 encap 230 ------- 0 1.3 2.0 -1 119
- 0.32125 1 0 encap 230 ------- 0 1.3 2.0 -1 119
r 0.324953 0 2 encap 230 ------- 0 1.3 2.0 -1 109
r 0.324977 1 0 encap 230 ------- 0 1.3 2.0 -1 115
+ 0.324977 0 2 encap 230 ------- 0 1.3 2.0 -1 115
- 0.324977 0 2 encap 230 ------- 0 1.3 2.0 -1 115
+ 0.325 1 0 encap 230 ------- 0 1.3 2.0 -1 121
- 0.325 1 0 encap 230 ------- 0 1.3 2.0 -1 121
r 0.328703 0 2 encap 230 ------- 0 1.3 2.0 -1 111
r 0.328727 1 0 encap 230 ------- 0 1.3 2.0 -1 117
+ 0.328727 0 2 encap 230 ------- 0 1.3 2.0 -1 117
- 0.328727 0 2 encap 230 ------- 0 1.3 2.0 -1 117
+ 0.32875 1 0 encap 230 ------- 0 1.3 2.0 -1 123
- 0.32875 1 0 encap 230 ------- 0 1.3 2.0 -1 123
r 0.332453 0 2 encap 230 ------- 0 1.3 2.0 -1 113
r 0.332477 1 0 encap 230 ------- 0 1.3 2.0 -1 119
+ 0.332477 0 2 encap 230 ------- 0 1.3 2.0 -1 119
- 0.332477 0 2 encap 230 ------- 0 1.3 2.0 -1 119
+ 0.3325 1 0 encap 230 ------- 0 1.3 2.0 -1 125
- 0.3325 1 0 encap 230 ------- 0 1.3 2.0 -1 125
r 0.336203 0 2 encap 230 ------- 0 1.3 2.0 -1 115
r 0.336227 1 0 encap 230 ------- 0 1.3 2.0 -1 121
+ 0.336227 0 2 encap 230 ------- 0 1.3 2.0 -1 121
- 0.336227 0 2 encap 230 ------- 0 1.3 2.0 -1 121
+ 0.33625 1 0 encap 230 ------- 0 1.3 2.0 -1 127
- 0.33625 1 0 encap 230 ------- 0 1.3 2.0 -1 127
r 0.339953 0 2 encap 230 ------- 0 1.3 2.0 -1 117
r 0.339977 1 0 encap 230 ------- 0 1.3 2.0 -1 123
+ 0.339977 0 2 encap 230 ------- 0 1.3 2.0 -1 123
- 0.339977 0 2 encap 230 ------- 0 1.3 2.0 -1 123
+ 0.34 1 0 encap 230 ------- 0 1.3 2.0 -1 129
- 0.34 1 0 encap 230 ------- 0 1.3 2.0 -1 129
r 0.343703 0 2 encap 230 ------- 0 1.3 2.0 -1 119
r 0.343727 1 0 encap 230 ------- 0 1.3 2.0 -1 125
+ 0.343727 0 2 encap 230 ------- 0 1.3 2.0 -1 125
- 0.343727 0 2 encap 230 ------- 0 1.3 2.0 -1 125
+ 0.34375 1 0 encap 230 ------- 0 1.3 2.0 -1 131
- 0.34375 1 0 encap 230 ------- 0 1.3 2.0 -1 131
r 0.347453 0 2 encap 230 ------- 0 1.3 2.0 -1 121
r 0.347477 1 0 encap 230 ------- 0 1.3 2.0 -1 127
+ 0.347477 0 2 encap 230 ------- 0 1.3 2.0 -1 127
- 0.347477 0 2 encap 230 ------- 0 1.3 2.0 -1 127
+ 0.3475 1 0 encap 230 ------- 0 1.3 2.0 -1 133
- 0.3475 1 0 encap 230 ------- 0 1.3 2.0 -1 133
r 0.351203 0 2 encap 230 ------- 0 1.3 2.0 -1 123
r 0.351227 1 0 encap 230 ------- 0 1.3 2.0 -1 129
+ 0.351227 0 2 encap 230 ------- 0 1.3 2.0 -1 129
- 0.351227 0 2 encap 230 ------- 0 1.3 2.0 -1 129
+ 0.35125 1 0 encap 230 ------- 0 1.3 2.0 -1 135
- 0.35125 1 0 encap 230 ------- 0 1.3 2.0 -1 135
r 0.354953 0 2 encap 230 ------- 0 1.3 2.0 -1 125
r 0.354977 1 0 encap 230 ------- 0 1.3 2.0 -1 131
+ 0.354977 0 2 encap 230 ------- 0 1.3 2.0 -1 131
- 0.354977 0 2 encap 230 ------- 0 1.3 2.0 -1 131
+ 0.355 1 0 encap 230 ------- 0 1.3 2.0 -1 137
- 0.355 1 0 encap 230 ------- 0 1.3 2.0 -1 137
r 0.358703 0 2 encap 230 ------- 0 1.3 2.0 -1 127
r 0.358727 1 0 encap 230 ------- 0 1.3 2.0 -1 133
+ 0.358727 0 2 encap 230 ------- 0 1.3 2.0 -1 133
- 0.358727 0 2 encap 230 ------- 0 1.3 2.0 -1 133
+ 0.35875 1 0 encap 230 ------- 0 1.3 2.0 -1 139
- 0.35875 1 0 encap 230 ------- 0 1.3 2.0 -1 139
r 0.362453 0 2 encap 230 ------- 0 1.3 2.0 -1 129
r 0.362477 1 0 encap 230 ------- 0 1.3 2.0 -1 135
+ 0.362477 0 2 encap 230 ------- 0 1.3 2.0 -1 135
- 0.362477 0 2 encap 230 ------- 0 1.3 2.0 -1 135
+ 0.3625 1 0 encap 230 ------- 0 1.3 2.0 -1 141
- 0.3625 1 0 encap 230 ------- 0 1.3 2.0 -1 141
r 0.366203 0 2 encap 230 ------- 0 1.3 2.0 -1 131
r 0.366227 1 0 encap 230 ------- 0 1.3 2.0 -1 137
+ 0.366227 0 2 encap 230 ------- 0 1.3 2.0 -1 137
- 0.366227 0 2 encap 230 ------- 0 1.3 2.0 -1 137
+ 0.36625 1 0 encap 230 ------- 0 1.3 2.0 -1 143
- 0.36625 1 0 encap 230 ------- 0 1.3 2.0 -1 143
r 0.369953 0 2 encap 230 ------- 0 1.3 2.0 -1 133
r 0.369977 1 0 encap 230 ------- 0 1.3 2.0 -1 139
+ 0.369977 0 2 encap 230 ------- 0 1.3 2.0 -1 139
- 0.369977 0 2 encap 230 ------- 0 1.3 2.0 -1 139
+ 0.37 1 0 encap 230 ------- 0 1.3 2.0 -1 145
- 0.37 1 0 encap 230 ------- 0 1.3 2.0 -1 145
r 0.373703 0 2 encap 230 ------- 0 1.3 2.0 -1 135
r 0.373727 1 0 encap 230 ------- 0 1.3 2.0 -1 141
+ 0.373727 0 2 encap 230 ------- 0 1.3 2.0 -1 141
- 0.373727 0 2 encap 230 ------- 0 1.3 2.0 -1 141
+ 0.37375 1 0 encap 230 ------- 0 1.3 2.0 -1 147
- 0.37375 1 0 encap 230 ------- 0 1.3 2.0 -1 147
r 0.377453 0 2 encap 230 ------- 0 1.3 2.0 -1 137
r 0.377477 1 0 encap 230 ------- 0 1.3 2.0 -1 143
+ 0.377477 0 2 encap 230 ------- 0 1.3 2.0 -1 143
- 0.377477 0 2 encap 230 ------- 0 1.3 2.0 -1 143
+ 0.3775 1 0 encap 230 ------- 0 1.3 2.0 -1 149
- 0.3775 1 0 encap 230 ------- 0 1.3 2.0 -1 149
r 0.381203 0 2 encap 230 ------- 0 1.3 2.0 -1 139
r 0.381227 1 0 encap 230 ------- 0 1.3 2.0 -1 145
+ 0.381227 0 2 encap 230 ------- 0 1.3 2.0 -1 145
- 0.381227 0 2 encap 230 ------- 0 1.3 2.0 -1 145
+ 0.38125 1 0 encap 230 ------- 0 1.3 2.0 -1 151
- 0.38125 1 0 encap 230 ------- 0 1.3 2.0 -1 151
r 0.384953 0 2 encap 230 ------- 0 1.3 2.0 -1 141
r 0.384977 1 0 encap 230 ------- 0 1.3 2.0 -1 147
+ 0.384977 0 2 encap 230 ------- 0 1.3 2.0 -1 147
- 0.384977 0 2 encap 230 ------- 0 1.3 2.0 -1 147
+ 0.385 1 0 encap 230 ------- 0 1.3 2.0 -1 153
- 0.385 1 0 encap 230 ------- 0 1.3 2.0 -1 153
r 0.388703 0 2 encap 230 ------- 0 1.3 2.0 -1 143
r 0.388727 1 0 encap 230 ------- 0 1.3 2.0 -1 149
+ 0.388727 0 2 encap 230 ------- 0 1.3 2.0 -1 149
- 0.388727 0 2 encap 230 ------- 0 1.3 2.0 -1 149
+ 0.38875 1 0 encap 230 ------- 0 1.3 2.0 -1 155
- 0.38875 1 0 encap 230 ------- 0 1.3 2.0 -1 155
r 0.392453 0 2 encap 230 ------- 0 1.3 2.0 -1 145
r 0.392477 1 0 encap 230 ------- 0 1.3 2.0 -1 151
+ 0.392477 0 2 encap 230 ------- 0 1.3 2.0 -1 151
- 0.392477 0 2 encap 230 ------- 0 1.3 2.0 -1 151
+ 0.3925 1 0 encap 230 ------- 0 1.3 2.0 -1 157
- 0.3925 1 0 encap 230 ------- 0 1.3 2.0 -1 157
r 0.396203 0 2 encap 230 ------- 0 1.3 2.0 -1 147
r 0.396227 1 0 encap 230 ------- 0 1.3 2.0 -1 153
+ 0.396227 0 2 encap 230 ------- 0 1.3 2.0 -1 153
- 0.396227 0 2 encap 230 ------- 0 1.3 2.0 -1 153
+ 0.39625 1 0 encap 230 ------- 0 1.3 2.0 -1 159
- 0.39625 1 0 encap 230 ------- 0 1.3 2.0 -1 159
r 0.399953 0 2 encap 230 ------- 0 1.3 2.0 -1 149
r 0.399977 1 0 encap 230 ------- 0 1.3 2.0 -1 155
+ 0.399977 0 2 encap 230 ------- 0 1.3 2.0 -1 155
- 0.399977 0 2 encap 230 ------- 0 1.3 2.0 -1 155
+ 0.4 1 0 encap 230 ------- 0 1.3 2.0 -1 161
- 0.4 1 0 encap 230 ------- 0 1.3 2.0 -1 161
r 0.403703 0 2 encap 230 ------- 0 1.3 2.0 -1 151
r 0.403727 1 0 encap 230 ------- 0 1.3 2.0 -1 157
+ 0.403727 0 2 encap 230 ------- 0 1.3 2.0 -1 157
- 0.403727 0 2 encap 230 ------- 0 1.3 2.0 -1 157
+ 0.40375 1 0 encap 230 ------- 0 1.3 2.0 -1 163
- 0.40375 1 0 encap 230 ------- 0 1.3 2.0 -1 163
r 0.407453 0 2 encap 230 ------- 0 1.3 2.0 -1 153
r 0.407477 1 0 encap 230 ------- 0 1.3 2.0 -1 159
+ 0.407477 0 2 encap 230 ------- 0 1.3 2.0 -1 159
- 0.407477 0 2 encap 230 ------- 0 1.3 2.0 -1 159
+ 0.4075 1 0 encap 230 ------- 0 1.3 2.0 -1 165
- 0.4075 1 0 encap 230 ------- 0 1.3 2.0 -1 165
r 0.411203 0 2 encap 230 ------- 0 1.3 2.0 -1 155
r 0.411227 1 0 encap 230 ------- 0 1.3 2.0 -1 161
+ 0.411227 0 2 encap 230 ------- 0 1.3 2.0 -1 161
- 0.411227 0 2 encap 230 ------- 0 1.3 2.0 -1 161
+ 0.41125 1 0 encap 230 ------- 0 1.3 2.0 -1 167
- 0.41125 1 0 encap 230 ------- 0 1.3 2.0 -1 167
r 0.414953 0 2 encap 230 ------- 0 1.3 2.0 -1 157
r 0.414977 1 0 encap 230 ------- 0 1.3 2.0 -1 163
+ 0.414977 0 2 encap 230 ------- 0 1.3 2.0 -1 163
- 0.414977 0 2 encap 230 ------- 0 1.3 2.0 -1 163
+ 0.415 1 0 encap 230 ------- 0 1.3 2.0 -1 169
- 0.415 1 0 encap 230 ------- 0 1.3 2.0 -1 169
r 0.418703 0 2 encap 230 ------- 0 1.3 2.0 -1 159
r 0.418727 1 0 encap 230 ------- 0 1.3 2.0 -1 165
+ 0.418727 0 2 encap 230 ------- 0 1.3 2.0 -1 165
- 0.418727 0 2 encap 230 ------- 0 1.3 2.0 -1 165
+ 0.41875 1 0 encap 230 ------- 0 1.3 2.0 -1 171
- 0.41875 1 0 encap 230 ------- 0 1.3 2.0 -1 171
r 0.422453 0 2 encap 230 ------- 0 1.3 2.0 -1 161
r 0.422477 1 0 encap 230 ------- 0 1.3 2.0 -1 167
+ 0.422477 0 2 encap 230 ------- 0 1.3 2.0 -1 167
- 0.422477 0 2 encap 230 ------- 0 1.3 2.0 -1 167
+ 0.4225 1 0 encap 230 ------- 0 1.3 2.0 -1 173
- 0.4225 1 0 encap 230 ------- 0 1.3 2.0 -1 173
r 0.426203 0 2 encap 230 ------- 0 1.3 2.0 -1 163
r 0.426227 1 0 encap 230 ------- 0 1.3 2.0 -1 169
+ 0.426227 0 2 encap 230 ------- 0 1.3 2.0 -1 169
- 0.426227 0 2 encap 230 ------- 0 1.3 2.0 -1 169
+ 0.42625 1 0 encap 230 ------- 0 1.3 2.0 -1 175
- 0.42625 1 0 encap 230 ------- 0 1.3 2.0 -1 175
r 0.429953 0 2 encap 230 ------- 0 1.3 2.0 -1 165
r 0.429977 1 0 encap 230 ------- 0 1.3 2.0 -1 171
+ 0.429977 0 2 encap 230 ------- 0 1.3 2.0 -1 171
- 0.429977 0 2 encap 230 ------- 0 1.3 2.0 -1 171
+ 0.43 1 0 encap 230 ------- 0 1.3 2.0 -1 177
- 0.43 1 0 encap 230 ------- 0 1.3 2.0 -1 177
r 0.433703 0 2 encap 230 ------- 0 1.3 2.0 -1 167
r 0.433727 1 0 encap 230 ------- 0 1.3 2.0 -1 173
+ 0.433727 0 2 encap 230 ------- 0 1.3 2.0 -1 173
- 0.433727 0 2 encap 230 ------- 0 1.3 2.0 -1 173
+ 0.43375 1 0 encap 230 ------- 0 1.3 2.0 -1 179
- 0.43375 1 0 encap 230 ------- 0 1.3 2.0 -1 179
r 0.437453 0 2 encap 230 ------- 0 1.3 2.0 -1 169
r 0.437477 1 0 encap 230 ------- 0 1.3 2.0 -1 175
+ 0.437477 0 2 encap 230 ------- 0 1.3 2.0 -1 175
- 0.437477 0 2 encap 230 ------- 0 1.3 2.0 -1 175
+ 0.4375 1 0 encap 230 ------- 0 1.3 2.0 -1 181
- 0.4375 1 0 encap 230 ------- 0 1.3 2.0 -1 181
r 0.441203 0 2 encap 230 ------- 0 1.3 2.0 -1 171
r 0.441227 1 0 encap 230 ------- 0 1.3 2.0 -1 177
+ 0.441227 0 2 encap 230 ------- 0 1.3 2.0 -1 177
- 0.441227 0 2 encap 230 ------- 0 1.3 2.0 -1 177
+ 0.44125 1 0 encap 230 ------- 0 1.3 2.0 -1 183
- 0.44125 1 0 encap 230 ------- 0 1.3 2.0 -1 183
r 0.444953 0 2 encap 230 ------- 0 1.3 2.0 -1 173
r 0.444977 1 0 encap 230 ------- 0 1.3 2.0 -1 179
+ 0.444977 0 2 encap 230 ------- 0 1.3 2.0 -1 179
- 0.444977 0 2 encap 230 ------- 0 1.3 2.0 -1 179
+ 0.445 1 0 encap 230 ------- 0 1.3 2.0 -1 185
- 0.445 1 0 encap 230 ------- 0 1.3 2.0 -1 185
r 0.448703 0 2 encap 230 ------- 0 1.3 2.0 -1 175
r 0.448727 1 0 encap 230 ------- 0 1.3 2.0 -1 181
+ 0.448727 0 2 encap 230 ------- 0 1.3 2.0 -1 181
- 0.448727 0 2 encap 230 ------- 0 1.3 2.0 -1 181
+ 0.44875 1 0 encap 230 ------- 0 1.3 2.0 -1 187
- 0.44875 1 0 encap 230 ------- 0 1.3 2.0 -1 187
r 0.452453 0 2 encap 230 ------- 0 1.3 2.0 -1 177
r 0.452477 1 0 encap 230 ------- 0 1.3 2.0 -1 183
+ 0.452477 0 2 encap 230 ------- 0 1.3 2.0 -1 183
- 0.452477 0 2 encap 230 ------- 0 1.3 2.0 -1 183
+ 0.4525 1 0 encap 230 ------- 0 1.3 2.0 -1 189
- 0.4525 1 0 encap 230 ------- 0 1.3 2.0 -1 189
r 0.456203 0 2 encap 230 ------- 0 1.3 2.0 -1 179
r 0.456227 1 0 encap 230 ------- 0 1.3 2.0 -1 185
+ 0.456227 0 2 encap 230 ------- 0 1.3 2.0 -1 185
- 0.456227 0 2 encap 230 ------- 0 1.3 2.0 -1 185
+ 0.45625 1 0 encap 230 ------- 0 1.3 2.0 -1 191
- 0.45625 1 0 encap 230 ------- 0 1.3 2.0 -1 191
r 0.459953 0 2 encap 230 ------- 0 1.3 2.0 -1 181
r 0.459977 1 0 encap 230 ------- 0 1.3 2.0 -1 187
+ 0.459977 0 2 encap 230 ------- 0 1.3 2.0 -1 187
- 0.459977 0 2 encap 230 ------- 0 1.3 2.0 -1 187
+ 0.46 1 0 encap 230 ------- 0 1.3 2.0 -1 193
- 0.46 1 0 encap 230 ------- 0 1.3 2.0 -1 193
r 0.463703 0 2 encap 230 ------- 0 1.3 2.0 -1 183
r 0.463727 1 0 encap 230 ------- 0 1.3 2.0 -1 189
+ 0.463727 0 2 encap 230 ------- 0 1.3 2.0 -1 189
- 0.463727 0 2 encap 230 ------- 0 1.3 2.0 -1 189
+ 0.46375 1 0 encap 230 ------- 0 1.3 2.0 -1 195
- 0.46375 1 0 encap 230 ------- 0 1.3 2.0 -1 195
r 0.467453 0 2 encap 230 ------- 0 1.3 2.0 -1 185
r 0.467477 1 0 encap 230 ------- 0 1.3 2.0 -1 191
+ 0.467477 0 2 encap 230 ------- 0 1.3 2.0 -1 191
- 0.467477 0 2 encap 230 ------- 0 1.3 2.0 -1 191
+ 0.4675 1 0 encap 230 ------- 0 1.3 2.0 -1 197
- 0.4675 1 0 encap 230 ------- 0 1.3 2.0 -1 197
r 0.471203 0 2 encap 230 ------- 0 1.3 2.0 -1 187
r 0.471227 1 0 encap 230 ------- 0 1.3 2.0 -1 193
+ 0.471227 0 2 encap 230 ------- 0 1.3 2.0 -1 193
- 0.471227 0 2 encap 230 ------- 0 1.3 2.0 -1 193
+ 0.47125 1 0 encap 230 ------- 0 1.3 2.0 -1 199
- 0.47125 1 0 encap 230 ------- 0 1.3 2.0 -1 199
r 0.474953 0 2 encap 230 ------- 0 1.3 2.0 -1 189
r 0.474977 1 0 encap 230 ------- 0 1.3 2.0 -1 195
+ 0.474977 0 2 encap 230 ------- 0 1.3 2.0 -1 195
- 0.474977 0 2 encap 230 ------- 0 1.3 2.0 -1 195
+ 0.475 1 0 encap 230 ------- 0 1.3 2.0 -1 201
- 0.475 1 0 encap 230 ------- 0 1.3 2.0 -1 201
r 0.478703 0 2 encap 230 ------- 0 1.3 2.0 -1 191
r 0.478727 1 0 encap 230 ------- 0 1.3 2.0 -1 197
+ 0.478727 0 2 encap 230 ------- 0 1.3 2.0 -1 197
- 0.478727 0 2 encap 230 ------- 0 1.3 2.0 -1 197
+ 0.47875 1 0 encap 230 ------- 0 1.3 2.0 -1 203
- 0.47875 1 0 encap 230 ------- 0 1.3 2.0 -1 203
r 0.482453 0 2 encap 230 ------- 0 1.3 2.0 -1 193
r 0.482477 1 0 encap 230 ------- 0 1.3 2.0 -1 199
+ 0.482477 0 2 encap 230 ------- 0 1.3 2.0 -1 199
- 0.482477 0 2 encap 230 ------- 0 1.3 2.0 -1 199
+ 0.4825 1 0 encap 230 ------- 0 1.3 2.0 -1 205
- 0.4825 1 0 encap 230 ------- 0 1.3 2.0 -1 205
r 0.486203 0 2 encap 230 ------- 0 1.3 2.0 -1 195
r 0.486227 1 0 encap 230 ------- 0 1.3 2.0 -1 201
+ 0.486227 0 2 encap 230 ------- 0 1.3 2.0 -1 201
- 0.486227 0 2 encap 230 ------- 0 1.3 2.0 -1 201
+ 0.48625 1 0 encap 230 ------- 0 1.3 2.0 -1 207